%VERSION  VERSION_STAMP = V0001.000  DATE = 11/14/24  20:45:59                  
%FLAG TITLE                                                                     
%FORMAT(20a4)                                                                   
default_name                                                                    
%FLAG POINTERS                                                                  
%FORMAT(10I8)                                                                   
    1844       4    1836       0       0       0       0       0       0       0
    2456     620       0       0       0       2       0       0       4       0
       0       0       0       0       0       0       0       1       3       0
       0
%FLAG ATOM_NAME                                                                 
%FORMAT(20a4)                                                                   
Na+ Na+ Na+ Na+ Cl- Cl- Cl- Cl- O   H1  H2  O   H1  H2  O   H1  H2  O   H1  H2  
O   H1  H2  O   H1  H2  O   H1  H2  O   H1  H2  O   H1  H2  O   H1  H2  O   H1  
H2  O   H1  H2  O   H1  H2  O   H1  H2  O   H1  H2  O   H1  H2  O   H1  H2  O   
H1  H2  O   H1  H2  O   H1  H2  O   H1  H2  O   H1  H2  O   H1  H2  O   H1  H2  
O   H1  H2  O   H1  H2  O   H1  H2  O   H1  H2  O   H1  H2  O   H1  H2  O   H1  
H2  O   H1  H2  O   H1  H2  O   H1  H2  O   H1  H2  O   H1  H2  O   H1  H2  O   
H1  H2  O   H1  H2  O   H1  H2  O   H1  H2  O   H1  H2  O   H1  H2  O   H1  H2  
O   H1  H2  O   H1  H2  O   H1  H2  O   H1  H2  O   H1  H2  O   H1  H2  O   H1  
H2  O   H1  H2  O   H1  H2  O   H1  H2  O   H1  H2  O   H1  H2  O   H1  H2  O   
H1  H2  O   H1  H2  O   H1  H2  O   H1  H2  O   H1  H2  O   H1  H2  O   H1  H2  
O   H1  H2  O   H1  H2  O   H1  H2  O   H1  H2  O   H1  H2  O   H1  H2  O   H1  
H2  O   H1  H2  O   H1  H2  O   H1  H2  O   H1  H2  O   H1  H2  O   H1  H2  O   
H1  H2  O   H1  H2  O   H1  H2  O   H1  H2  O   H1  H2  O   H1  H2  O   H1  H2  
O   H1  H2  O   H1  H2  O   H1  H2  O   H1  H2  O   H1  H2  O   H1  H2  O   H1  
H2  O   H1  H2  O   H1  H2  O   H1  H2  O   H1  H2  O   H1  H2  O   H1  H2  O   
H1  H2  O   H1  H2  O   H1  H2  O   H1  H2  O   H1  H2  O   H1  H2  O   H1  H2  
O   H1  H2  O   H1  H2  O   H1  H2  O   H1  H2  O   H1  H2  O   H1  H2  O   H1  
H2  O   H1  H2  O   H1  H2  O   H1  H2  O   H1  H2  O   H1  H2  O   H1  H2  O   
H1  H2  O   H1  H2  O   H1  H2  O   H1  H2  O   H1  H2  O   H1  H2  O   H1  H2  
O   H1  H2  O   H1  H2  O   H1  H2  O   H1  H2  O   H1  H2  O   H1  H2  O   H1  
H2  O   H1  H2  O   H1  H2  O   H1  H2  O   H1  H2  O   H1  H2  O   H1  H2  O   
H1  H2  O   H1  H2  O   H1  H2  O   H1  H2  O   H1  H2  O   H1  H2  O   H1  H2  
O   H1  H2  O   H1  H2  O   H1  H2  O   H1  H2  O   H1  H2  O   H1  H2  O   H1  
H2  O   H1  H2  O   H1  H2  O   H1  H2  O   H1  H2  O   H1  H2  O   H1  H2  O   
H1  H2  O   H1  H2  O   H1  H2  O   H1  H2  O   H1  H2  O   H1  H2  O   H1  H2  
O   H1  H2  O   H1  H2  O   H1  H2  O   H1  H2  O   H1  H2  O   H1  H2  O   H1  
H2  O   H1  H2  O   H1  H2  O   H1  H2  O   H1  H2  O   H1  H2  O   H1  H2  O   
H1  H2  O   H1  H2  O   H1  H2  O   H1  H2  O   H1  H2  O   H1  H2  O   H1  H2  
O   H1  H2  O   H1  H2  O   H1  H2  O   H1  H2  O   H1  H2  O   H1  H2  O   H1  
H2  O   H1  H2  O   H1  H2  O   H1  H2  O   H1  H2  O   H1  H2  O   H1  H2  O   
H1  H2  O   H1  H2  O   H1  H2  O   H1  H2  O   H1  H2  O   H1  H2  O   H1  H2  
O   H1  H2  O   H1  H2  O   H1  H2  O   H1  H2  O   H1  H2  O   H1  H2  O   H1  
H2  O   H1  H2  O   H1  H2  O   H1  H2  O   H1  H2  O   H1  H2  O   H1  H2  O   
H1  H2  O   H1  H2  O   H1  H2  O   H1  H2  O   H1  H2  O   H1  H2  O   H1  H2  
O   H1  H2  O   H1  H2  O   H1  H2  O   H1  H2  O   H1  H2  O   H1  H2  O   H1  
H2  O   H1  H2  O   H1  H2  O   H1  H2  O   H1  H2  O   H1  H2  O   H1  H2  O   
H1  H2  O   H1  H2  O   H1  H2  O   H1  H2  O   H1  H2  O   H1  H2  O   H1  H2  
O   H1  H2  O   H1  H2  O   H1  H2  O   H1  H2  O   H1  H2  O   H1  H2  O   H1  
H2  O   H1  H2  O   H1  H2  O   H1  H2  O   H1  H2  O   H1  H2  O   H1  H2  O   
H1  H2  O   H1  H2  O   H1  H2  O   H1  H2  O   H1  H2  O   H1  H2  O   H1  H2  
O   H1  H2  O   H1  H2  O   H1  H2  O   H1  H2  O   H1  H2  O   H1  H2  O   H1  
H2  O   H1  H2  O   H1  H2  O   H1  H2  O   H1  H2  O   H1  H2  O   H1  H2  O   
H1  H2  O   H1  H2  O   H1  H2  O   H1  H2  O   H1  H2  O   H1  H2  O   H1  H2  
O   H1  H2  O   H1  H2  O   H1  H2  O   H1  H2  O   H1  H2  O   H1  H2  O   H1  
H2  O   H1  H2  O   H1  H2  O   H1  H2  O   H1  H2  O   H1  H2  O   H1  H2  O   
H1  H2  O   H1  H2  O   H1  H2  O   H1  H2  O   H1  H2  O   H1  H2  O   H1  H2  
O   H1  H2  O   H1  H2  O   H1  H2  O   H1  H2  O   H1  H2  O   H1  H2  O   H1  
H2  O   H1  H2  O   H1  H2  O   H1  H2  O   H1  H2  O   H1  H2  O   H1  H2  O   
H1  H2  O   H1  H2  O   H1  H2  O   H1  H2  O   H1  H2  O   H1  H2  O   H1  H2  
O   H1  H2  O   H1  H2  O   H1  H2  O   H1  H2  O   H1  H2  O   H1  H2  O   H1  
H2  O   H1  H2  O   H1  H2  O   H1  H2  O   H1  H2  O   H1  H2  O   H1  H2  O   
H1  H2  O   H1  H2  O   H1  H2  O   H1  H2  O   H1  H2  O   H1  H2  O   H1  H2  
O   H1  H2  O   H1  H2  O   H1  H2  O   H1  H2  O   H1  H2  O   H1  H2  O   H1  
H2  O   H1  H2  O   H1  H2  O   H1  H2  O   H1  H2  O   H1  H2  O   H1  H2  O   
H1  H2  O   H1  H2  O   H1  H2  O   H1  H2  O   H1  H2  O   H1  H2  O   H1  H2  
O   H1  H2  O   H1  H2  O   H1  H2  O   H1  H2  O   H1  H2  O   H1  H2  O   H1  
H2  O   H1  H2  O   H1  H2  O   H1  H2  O   H1  H2  O   H1  H2  O   H1  H2  O   
H1  H2  O   H1  H2  O   H1  H2  O   H1  H2  O   H1  H2  O   H1  H2  O   H1  H2  
O   H1  H2  O   H1  H2  O   H1  H2  O   H1  H2  O   H1  H2  O   H1  H2  O   H1  
H2  O   H1  H2  O   H1  H2  O   H1  H2  O   H1  H2  O   H1  H2  O   H1  H2  O   
H1  H2  O   H1  H2  O   H1  H2  O   H1  H2  O   H1  H2  O   H1  H2  O   H1  H2  
O   H1  H2  O   H1  H2  O   H1  H2  O   H1  H2  O   H1  H2  O   H1  H2  O   H1  
H2  O   H1  H2  O   H1  H2  O   H1  H2  O   H1  H2  O   H1  H2  O   H1  H2  O   
H1  H2  O   H1  H2  O   H1  H2  O   H1  H2  O   H1  H2  O   H1  H2  O   H1  H2  
O   H1  H2  O   H1  H2  O   H1  H2  O   H1  H2  O   H1  H2  O   H1  H2  O   H1  
H2  O   H1  H2  O   H1  H2  O   H1  H2  O   H1  H2  O   H1  H2  O   H1  H2  O   
H1  H2  O   H1  H2  O   H1  H2  O   H1  H2  O   H1  H2  O   H1  H2  O   H1  H2  
O   H1  H2  O   H1  H2  O   H1  H2  O   H1  H2  O   H1  H2  O   H1  H2  O   H1  
H2  O   H1  H2  O   H1  H2  O   H1  H2  O   H1  H2  O   H1  H2  O   H1  H2  O   
H1  H2  O   H1  H2  O   H1  H2  O   H1  H2  O   H1  H2  O   H1  H2  O   H1  H2  
O   H1  H2  O   H1  H2  O   H1  H2  O   H1  H2  O   H1  H2  O   H1  H2  O   H1  
H2  O   H1  H2  O   H1  H2  O   H1  H2  O   H1  H2  O   H1  H2  O   H1  H2  O   
H1  H2  O   H1  H2  O   H1  H2  O   H1  H2  O   H1  H2  O   H1  H2  O   H1  H2  
O   H1  H2  O   H1  H2  O   H1  H2  O   H1  H2  O   H1  H2  O   H1  H2  O   H1  
H2  O   H1  H2  O   H1  H2  O   H1  H2  O   H1  H2  O   H1  H2  O   H1  H2  O   
H1  H2  O   H1  H2  O   H1  H2  O   H1  H2  O   H1  H2  O   H1  H2  O   H1  H2  
O   H1  H2  O   H1  H2  O   H1  H2  O   H1  H2  O   H1  H2  O   H1  H2  O   H1  
H2  O   H1  H2  O   H1  H2  O   H1  H2  O   H1  H2  O   H1  H2  O   H1  H2  O   
H1  H2  O   H1  H2  O   H1  H2  O   H1  H2  O   H1  H2  O   H1  H2  O   H1  H2  
O   H1  H2  O   H1  H2  O   H1  H2  O   H1  H2  O   H1  H2  O   H1  H2  O   H1  
H2  O   H1  H2  O   H1  H2  O   H1  H2  O   H1  H2  O   H1  H2  O   H1  H2  O   
H1  H2  O   H1  H2  O   H1  H2  O   H1  H2  O   H1  H2  O   H1  H2  O   H1  H2  
O   H1  H2  O   H1  H2  O   H1  H2  O   H1  H2  O   H1  H2  O   H1  H2  O   H1  
H2  O   H1  H2  O   H1  H2  O   H1  H2  O   H1  H2  O   H1  H2  O   H1  H2  O   
H1  H2  O   H1  H2  O   H1  H2  O   H1  H2  O   H1  H2  O   H1  H2  O   H1  H2  
O   H1  H2  O   H1  H2  O   H1  H2  O   H1  H2  O   H1  H2  O   H1  H2  O   H1  
H2  O   H1  H2  O   H1  H2  O   H1  H2  O   H1  H2  O   H1  H2  O   H1  H2  O   
H1  H2  O   H1  H2  O   H1  H2  O   H1  H2  O   H1  H2  O   H1  H2  O   H1  H2  
O   H1  H2  O   H1  H2  O   H1  H2  O   H1  H2  O   H1  H2  O   H1  H2  O   H1  
H2  O   H1  H2  O   H1  H2  O   H1  H2  O   H1  H2  O   H1  H2  O   H1  H2  O   
H1  H2  O   H1  H2  O   H1  H2  O   H1  H2  O   H1  H2  O   H1  H2  O   H1  H2  
O   H1  H2  O   H1  H2  O   H1  H2  O   H1  H2  O   H1  H2  O   H1  H2  O   H1  
H2  O   H1  H2  
%FLAG CHARGE                                                                    
%FORMAT(5E16.8)                                                                 
  1.82223000E+01  1.82223000E+01  1.82223000E+01  1.82223000E+01 -1.82223000E+01
 -1.82223000E+01 -1.82223000E+01 -1.82223000E+01 -1.51973982E+01  7.59869910E+00
  7.59869910E+00 -1.51973982E+01  7.59869910E+00  7.59869910E+00 -1.51973982E+01
  7.59869910E+00  7.59869910E+00 -1.51973982E+01  7.59869910E+00  7.59869910E+00
 -1.51973982E+01  7.59869910E+00  7.59869910E+00 -1.51973982E+01  7.59869910E+00
  7.59869910E+00 -1.51973982E+01  7.59869910E+00  7.59869910E+00 -1.51973982E+01
  7.59869910E+00  7.59869910E+00 -1.51973982E+01  7.59869910E+00  7.59869910E+00
 -1.51973982E+01  7.59869910E+00  7.59869910E+00 -1.51973982E+01  7.59869910E+00
  7.59869910E+00 -1.51973982E+01  7.59869910E+00  7.59869910E+00 -1.51973982E+01
  7.59869910E+00  7.59869910E+00 -1.51973982E+01  7.59869910E+00  7.59869910E+00
 -1.51973982E+01  7.59869910E+00  7.59869910E+00 -1.51973982E+01  7.59869910E+00
  7.59869910E+00 -1.51973982E+01  7.59869910E+00  7.59869910E+00 -1.51973982E+01
  7.59869910E+00  7.59869910E+00 -1.51973982E+01  7.59869910E+00  7.59869910E+00
 -1.51973982E+01  7.59869910E+00  7.59869910E+00 -1.51973982E+01  7.59869910E+00
  7.59869910E+00 -1.51973982E+01  7.59869910E+00  7.59869910E+00 -1.51973982E+01
  7.59869910E+00  7.59869910E+00 -1.51973982E+01  7.59869910E+00  7.59869910E+00
 -1.51973982E+01  7.59869910E+00  7.59869910E+00 -1.51973982E+01  7.59869910E+00
  7.59869910E+00 -1.51973982E+01  7.59869910E+00  7.59869910E+00 -1.51973982E+01
  7.59869910E+00  7.59869910E+00 -1.51973982E+01  7.59869910E+00  7.59869910E+00
 -1.51973982E+01  7.59869910E+00  7.59869910E+00 -1.51973982E+01  7.59869910E+00
  7.59869910E+00 -1.51973982E+01  7.59869910E+00  7.59869910E+00 -1.51973982E+01
  7.59869910E+00  7.59869910E+00 -1.51973982E+01  7.59869910E+00  7.59869910E+00
 -1.51973982E+01  7.59869910E+00  7.59869910E+00 -1.51973982E+01  7.59869910E+00
  7.59869910E+00 -1.51973982E+01  7.59869910E+00  7.59869910E+00 -1.51973982E+01
  7.59869910E+00  7.59869910E+00 -1.51973982E+01  7.59869910E+00  7.59869910E+00
 -1.51973982E+01  7.59869910E+00  7.59869910E+00 -1.51973982E+01  7.59869910E+00
  7.59869910E+00 -1.51973982E+01  7.59869910E+00  7.59869910E+00 -1.51973982E+01
  7.59869910E+00  7.59869910E+00 -1.51973982E+01  7.59869910E+00  7.59869910E+00
 -1.51973982E+01  7.59869910E+00  7.59869910E+00 -1.51973982E+01  7.59869910E+00
  7.59869910E+00 -1.51973982E+01  7.59869910E+00  7.59869910E+00 -1.51973982E+01
  7.59869910E+00  7.59869910E+00 -1.51973982E+01  7.59869910E+00  7.59869910E+00
 -1.51973982E+01  7.59869910E+00  7.59869910E+00 -1.51973982E+01  7.59869910E+00
  7.59869910E+00 -1.51973982E+01  7.59869910E+00  7.59869910E+00 -1.51973982E+01
  7.59869910E+00  7.59869910E+00 -1.51973982E+01  7.59869910E+00  7.59869910E+00
 -1.51973982E+01  7.59869910E+00  7.59869910E+00 -1.51973982E+01  7.59869910E+00
  7.59869910E+00 -1.51973982E+01  7.59869910E+00  7.59869910E+00 -1.51973982E+01
  7.59869910E+00  7.59869910E+00 -1.51973982E+01  7.59869910E+00  7.59869910E+00
 -1.51973982E+01  7.59869910E+00  7.59869910E+00 -1.51973982E+01  7.59869910E+00
  7.59869910E+00 -1.51973982E+01  7.59869910E+00  7.59869910E+00 -1.51973982E+01
  7.59869910E+00  7.59869910E+00 -1.51973982E+01  7.59869910E+00  7.59869910E+00
 -1.51973982E+01  7.59869910E+00  7.59869910E+00 -1.51973982E+01  7.59869910E+00
  7.59869910E+00 -1.51973982E+01  7.59869910E+00  7.59869910E+00 -1.51973982E+01
  7.59869910E+00  7.59869910E+00 -1.51973982E+01  7.59869910E+00  7.59869910E+00
 -1.51973982E+01  7.59869910E+00  7.59869910E+00 -1.51973982E+01  7.59869910E+00
  7.59869910E+00 -1.51973982E+01  7.59869910E+00  7.59869910E+00 -1.51973982E+01
  7.59869910E+00  7.59869910E+00 -1.51973982E+01  7.59869910E+00  7.59869910E+00
 -1.51973982E+01  7.59869910E+00  7.59869910E+00 -1.51973982E+01  7.59869910E+00
  7.59869910E+00 -1.51973982E+01  7.59869910E+00  7.59869910E+00 -1.51973982E+01
  7.59869910E+00  7.59869910E+00 -1.51973982E+01  7.59869910E+00  7.59869910E+00
 -1.51973982E+01  7.59869910E+00  7.59869910E+00 -1.51973982E+01  7.59869910E+00
  7.59869910E+00 -1.51973982E+01  7.59869910E+00  7.59869910E+00 -1.51973982E+01
  7.59869910E+00  7.59869910E+00 -1.51973982E+01  7.59869910E+00  7.59869910E+00
 -1.51973982E+01  7.59869910E+00  7.59869910E+00 -1.51973982E+01  7.59869910E+00
  7.59869910E+00 -1.51973982E+01  7.59869910E+00  7.59869910E+00 -1.51973982E+01
  7.59869910E+00  7.59869910E+00 -1.51973982E+01  7.59869910E+00  7.59869910E+00
 -1.51973982E+01  7.59869910E+00  7.59869910E+00 -1.51973982E+01  7.59869910E+00
  7.59869910E+00 -1.51973982E+01  7.59869910E+00  7.59869910E+00 -1.51973982E+01
  7.59869910E+00  7.59869910E+00 -1.51973982E+01  7.59869910E+00  7.59869910E+00
 -1.51973982E+01  7.59869910E+00  7.59869910E+00 -1.51973982E+01  7.59869910E+00
  7.59869910E+00 -1.51973982E+01  7.59869910E+00  7.59869910E+00 -1.51973982E+01
  7.59869910E+00  7.59869910E+00 -1.51973982E+01  7.59869910E+00  7.59869910E+00
 -1.51973982E+01  7.59869910E+00  7.59869910E+00 -1.51973982E+01  7.59869910E+00
  7.59869910E+00 -1.51973982E+01  7.59869910E+00  7.59869910E+00 -1.51973982E+01
  7.59869910E+00  7.59869910E+00 -1.51973982E+01  7.59869910E+00  7.59869910E+00
 -1.51973982E+01  7.59869910E+00  7.59869910E+00 -1.51973982E+01  7.59869910E+00
  7.59869910E+00 -1.51973982E+01  7.59869910E+00  7.59869910E+00 -1.51973982E+01
  7.59869910E+00  7.59869910E+00 -1.51973982E+01  7.59869910E+00  7.59869910E+00
 -1.51973982E+01  7.59869910E+00  7.59869910E+00 -1.51973982E+01  7.59869910E+00
  7.59869910E+00 -1.51973982E+01  7.59869910E+00  7.59869910E+00 -1.51973982E+01
  7.59869910E+00  7.59869910E+00 -1.51973982E+01  7.59869910E+00  7.59869910E+00
 -1.51973982E+01  7.59869910E+00  7.59869910E+00 -1.51973982E+01  7.59869910E+00
  7.59869910E+00 -1.51973982E+01  7.59869910E+00  7.59869910E+00 -1.51973982E+01
  7.59869910E+00  7.59869910E+00 -1.51973982E+01  7.59869910E+00  7.59869910E+00
 -1.51973982E+01  7.59869910E+00  7.59869910E+00 -1.51973982E+01  7.59869910E+00
  7.59869910E+00 -1.51973982E+01  7.59869910E+00  7.59869910E+00 -1.51973982E+01
  7.59869910E+00  7.59869910E+00 -1.51973982E+01  7.59869910E+00  7.59869910E+00
 -1.51973982E+01  7.59869910E+00  7.59869910E+00 -1.51973982E+01  7.59869910E+00
  7.59869910E+00 -1.51973982E+01  7.59869910E+00  7.59869910E+00 -1.51973982E+01
  7.59869910E+00  7.59869910E+00 -1.51973982E+01  7.59869910E+00  7.59869910E+00
 -1.51973982E+01  7.59869910E+00  7.59869910E+00 -1.51973982E+01  7.59869910E+00
  7.59869910E+00 -1.51973982E+01  7.59869910E+00  7.59869910E+00 -1.51973982E+01
  7.59869910E+00  7.59869910E+00 -1.51973982E+01  7.59869910E+00  7.59869910E+00
 -1.51973982E+01  7.59869910E+00  7.59869910E+00 -1.51973982E+01  7.59869910E+00
  7.59869910E+00 -1.51973982E+01  7.59869910E+00  7.59869910E+00 -1.51973982E+01
  7.59869910E+00  7.59869910E+00 -1.51973982E+01  7.59869910E+00  7.59869910E+00
 -1.51973982E+01  7.59869910E+00  7.59869910E+00 -1.51973982E+01  7.59869910E+00
  7.59869910E+00 -1.51973982E+01  7.59869910E+00  7.59869910E+00 -1.51973982E+01
  7.59869910E+00  7.59869910E+00 -1.51973982E+01  7.59869910E+00  7.59869910E+00
 -1.51973982E+01  7.59869910E+00  7.59869910E+00 -1.51973982E+01  7.59869910E+00
  7.59869910E+00 -1.51973982E+01  7.59869910E+00  7.59869910E+00 -1.51973982E+01
  7.59869910E+00  7.59869910E+00 -1.51973982E+01  7.59869910E+00  7.59869910E+00
 -1.51973982E+01  7.59869910E+00  7.59869910E+00 -1.51973982E+01  7.59869910E+00
  7.59869910E+00 -1.51973982E+01  7.59869910E+00  7.59869910E+00 -1.51973982E+01
  7.59869910E+00  7.59869910E+00 -1.51973982E+01  7.59869910E+00  7.59869910E+00
 -1.51973982E+01  7.59869910E+00  7.59869910E+00 -1.51973982E+01  7.59869910E+00
  7.59869910E+00 -1.51973982E+01  7.59869910E+00  7.59869910E+00 -1.51973982E+01
  7.59869910E+00  7.59869910E+00 -1.51973982E+01  7.59869910E+00  7.59869910E+00
 -1.51973982E+01  7.59869910E+00  7.59869910E+00 -1.51973982E+01  7.59869910E+00
  7.59869910E+00 -1.51973982E+01  7.59869910E+00  7.59869910E+00 -1.51973982E+01
  7.59869910E+00  7.59869910E+00 -1.51973982E+01  7.59869910E+00  7.59869910E+00
 -1.51973982E+01  7.59869910E+00  7.59869910E+00 -1.51973982E+01  7.59869910E+00
  7.59869910E+00 -1.51973982E+01  7.59869910E+00  7.59869910E+00 -1.51973982E+01
  7.59869910E+00  7.59869910E+00 -1.51973982E+01  7.59869910E+00  7.59869910E+00
 -1.51973982E+01  7.59869910E+00  7.59869910E+00 -1.51973982E+01  7.59869910E+00
  7.59869910E+00 -1.51973982E+01  7.59869910E+00  7.59869910E+00 -1.51973982E+01
  7.59869910E+00  7.59869910E+00 -1.51973982E+01  7.59869910E+00  7.59869910E+00
 -1.51973982E+01  7.59869910E+00  7.59869910E+00 -1.51973982E+01  7.59869910E+00
  7.59869910E+00 -1.51973982E+01  7.59869910E+00  7.59869910E+00 -1.51973982E+01
  7.59869910E+00  7.59869910E+00 -1.51973982E+01  7.59869910E+00  7.59869910E+00
 -1.51973982E+01  7.59869910E+00  7.59869910E+00 -1.51973982E+01  7.59869910E+00
  7.59869910E+00 -1.51973982E+01  7.59869910E+00  7.59869910E+00 -1.51973982E+01
  7.59869910E+00  7.59869910E+00 -1.51973982E+01  7.59869910E+00  7.59869910E+00
 -1.51973982E+01  7.59869910E+00  7.59869910E+00 -1.51973982E+01  7.59869910E+00
  7.59869910E+00 -1.51973982E+01  7.59869910E+00  7.59869910E+00 -1.51973982E+01
  7.59869910E+00  7.59869910E+00 -1.51973982E+01  7.59869910E+00  7.59869910E+00
 -1.51973982E+01  7.59869910E+00  7.59869910E+00 -1.51973982E+01  7.59869910E+00
  7.59869910E+00 -1.51973982E+01  7.59869910E+00  7.59869910E+00 -1.51973982E+01
  7.59869910E+00  7.59869910E+00 -1.51973982E+01  7.59869910E+00  7.59869910E+00
 -1.51973982E+01  7.59869910E+00  7.59869910E+00 -1.51973982E+01  7.59869910E+00
  7.59869910E+00 -1.51973982E+01  7.59869910E+00  7.59869910E+00 -1.51973982E+01
  7.59869910E+00  7.59869910E+00 -1.51973982E+01  7.59869910E+00  7.59869910E+00
 -1.51973982E+01  7.59869910E+00  7.59869910E+00 -1.51973982E+01  7.59869910E+00
  7.59869910E+00 -1.51973982E+01  7.59869910E+00  7.59869910E+00 -1.51973982E+01
  7.59869910E+00  7.59869910E+00 -1.51973982E+01  7.59869910E+00  7.59869910E+00
 -1.51973982E+01  7.59869910E+00  7.59869910E+00 -1.51973982E+01  7.59869910E+00
  7.59869910E+00 -1.51973982E+01  7.59869910E+00  7.59869910E+00 -1.51973982E+01
  7.59869910E+00  7.59869910E+00 -1.51973982E+01  7.59869910E+00  7.59869910E+00
 -1.51973982E+01  7.59869910E+00  7.59869910E+00 -1.51973982E+01  7.59869910E+00
  7.59869910E+00 -1.51973982E+01  7.59869910E+00  7.59869910E+00 -1.51973982E+01
  7.59869910E+00  7.59869910E+00 -1.51973982E+01  7.59869910E+00  7.59869910E+00
 -1.51973982E+01  7.59869910E+00  7.59869910E+00 -1.51973982E+01  7.59869910E+00
  7.59869910E+00 -1.51973982E+01  7.59869910E+00  7.59869910E+00 -1.51973982E+01
  7.59869910E+00  7.59869910E+00 -1.51973982E+01  7.59869910E+00  7.59869910E+00
 -1.51973982E+01  7.59869910E+00  7.59869910E+00 -1.51973982E+01  7.59869910E+00
  7.59869910E+00 -1.51973982E+01  7.59869910E+00  7.59869910E+00 -1.51973982E+01
  7.59869910E+00  7.59869910E+00 -1.51973982E+01  7.59869910E+00  7.59869910E+00
 -1.51973982E+01  7.59869910E+00  7.59869910E+00 -1.51973982E+01  7.59869910E+00
  7.59869910E+00 -1.51973982E+01  7.59869910E+00  7.59869910E+00 -1.51973982E+01
  7.59869910E+00  7.59869910E+00 -1.51973982E+01  7.59869910E+00  7.59869910E+00
 -1.51973982E+01  7.59869910E+00  7.59869910E+00 -1.51973982E+01  7.59869910E+00
  7.59869910E+00 -1.51973982E+01  7.59869910E+00  7.59869910E+00 -1.51973982E+01
  7.59869910E+00  7.59869910E+00 -1.51973982E+01  7.59869910E+00  7.59869910E+00
 -1.51973982E+01  7.59869910E+00  7.59869910E+00 -1.51973982E+01  7.59869910E+00
  7.59869910E+00 -1.51973982E+01  7.59869910E+00  7.59869910E+00 -1.51973982E+01
  7.59869910E+00  7.59869910E+00 -1.51973982E+01  7.59869910E+00  7.59869910E+00
 -1.51973982E+01  7.59869910E+00  7.59869910E+00 -1.51973982E+01  7.59869910E+00
  7.59869910E+00 -1.51973982E+01  7.59869910E+00  7.59869910E+00 -1.51973982E+01
  7.59869910E+00  7.59869910E+00 -1.51973982E+01  7.59869910E+00  7.59869910E+00
 -1.51973982E+01  7.59869910E+00  7.59869910E+00 -1.51973982E+01  7.59869910E+00
  7.59869910E+00 -1.51973982E+01  7.59869910E+00  7.59869910E+00 -1.51973982E+01
  7.59869910E+00  7.59869910E+00 -1.51973982E+01  7.59869910E+00  7.59869910E+00
 -1.51973982E+01  7.59869910E+00  7.59869910E+00 -1.51973982E+01  7.59869910E+00
  7.59869910E+00 -1.51973982E+01  7.59869910E+00  7.59869910E+00 -1.51973982E+01
  7.59869910E+00  7.59869910E+00 -1.51973982E+01  7.59869910E+00  7.59869910E+00
 -1.51973982E+01  7.59869910E+00  7.59869910E+00 -1.51973982E+01  7.59869910E+00
  7.59869910E+00 -1.51973982E+01  7.59869910E+00  7.59869910E+00 -1.51973982E+01
  7.59869910E+00  7.59869910E+00 -1.51973982E+01  7.59869910E+00  7.59869910E+00
 -1.51973982E+01  7.59869910E+00  7.59869910E+00 -1.51973982E+01  7.59869910E+00
  7.59869910E+00 -1.51973982E+01  7.59869910E+00  7.59869910E+00 -1.51973982E+01
  7.59869910E+00  7.59869910E+00 -1.51973982E+01  7.59869910E+00  7.59869910E+00
 -1.51973982E+01  7.59869910E+00  7.59869910E+00 -1.51973982E+01  7.59869910E+00
  7.59869910E+00 -1.51973982E+01  7.59869910E+00  7.59869910E+00 -1.51973982E+01
  7.59869910E+00  7.59869910E+00 -1.51973982E+01  7.59869910E+00  7.59869910E+00
 -1.51973982E+01  7.59869910E+00  7.59869910E+00 -1.51973982E+01  7.59869910E+00
  7.59869910E+00 -1.51973982E+01  7.59869910E+00  7.59869910E+00 -1.51973982E+01
  7.59869910E+00  7.59869910E+00 -1.51973982E+01  7.59869910E+00  7.59869910E+00
 -1.51973982E+01  7.59869910E+00  7.59869910E+00 -1.51973982E+01  7.59869910E+00
  7.59869910E+00 -1.51973982E+01  7.59869910E+00  7.59869910E+00 -1.51973982E+01
  7.59869910E+00  7.59869910E+00 -1.51973982E+01  7.59869910E+00  7.59869910E+00
 -1.51973982E+01  7.59869910E+00  7.59869910E+00 -1.51973982E+01  7.59869910E+00
  7.59869910E+00 -1.51973982E+01  7.59869910E+00  7.59869910E+00 -1.51973982E+01
  7.59869910E+00  7.59869910E+00 -1.51973982E+01  7.59869910E+00  7.59869910E+00
 -1.51973982E+01  7.59869910E+00  7.59869910E+00 -1.51973982E+01  7.59869910E+00
  7.59869910E+00 -1.51973982E+01  7.59869910E+00  7.59869910E+00 -1.51973982E+01
  7.59869910E+00  7.59869910E+00 -1.51973982E+01  7.59869910E+00  7.59869910E+00
 -1.51973982E+01  7.59869910E+00  7.59869910E+00 -1.51973982E+01  7.59869910E+00
  7.59869910E+00 -1.51973982E+01  7.59869910E+00  7.59869910E+00 -1.51973982E+01
  7.59869910E+00  7.59869910E+00 -1.51973982E+01  7.59869910E+00  7.59869910E+00
 -1.51973982E+01  7.59869910E+00  7.59869910E+00 -1.51973982E+01  7.59869910E+00
  7.59869910E+00 -1.51973982E+01  7.59869910E+00  7.59869910E+00 -1.51973982E+01
  7.59869910E+00  7.59869910E+00 -1.51973982E+01  7.59869910E+00  7.59869910E+00
 -1.51973982E+01  7.59869910E+00  7.59869910E+00 -1.51973982E+01  7.59869910E+00
  7.59869910E+00 -1.51973982E+01  7.59869910E+00  7.59869910E+00 -1.51973982E+01
  7.59869910E+00  7.59869910E+00 -1.51973982E+01  7.59869910E+00  7.59869910E+00
 -1.51973982E+01  7.59869910E+00  7.59869910E+00 -1.51973982E+01  7.59869910E+00
  7.59869910E+00 -1.51973982E+01  7.59869910E+00  7.59869910E+00 -1.51973982E+01
  7.59869910E+00  7.59869910E+00 -1.51973982E+01  7.59869910E+00  7.59869910E+00
 -1.51973982E+01  7.59869910E+00  7.59869910E+00 -1.51973982E+01  7.59869910E+00
  7.59869910E+00 -1.51973982E+01  7.59869910E+00  7.59869910E+00 -1.51973982E+01
  7.59869910E+00  7.59869910E+00 -1.51973982E+01  7.59869910E+00  7.59869910E+00
 -1.51973982E+01  7.59869910E+00  7.59869910E+00 -1.51973982E+01  7.59869910E+00
  7.59869910E+00 -1.51973982E+01  7.59869910E+00  7.59869910E+00 -1.51973982E+01
  7.59869910E+00  7.59869910E+00 -1.51973982E+01  7.59869910E+00  7.59869910E+00
 -1.51973982E+01  7.59869910E+00  7.59869910E+00 -1.51973982E+01  7.59869910E+00
  7.59869910E+00 -1.51973982E+01  7.59869910E+00  7.59869910E+00 -1.51973982E+01
  7.59869910E+00  7.59869910E+00 -1.51973982E+01  7.59869910E+00  7.59869910E+00
 -1.51973982E+01  7.59869910E+00  7.59869910E+00 -1.51973982E+01  7.59869910E+00
  7.59869910E+00 -1.51973982E+01  7.59869910E+00  7.59869910E+00 -1.51973982E+01
  7.59869910E+00  7.59869910E+00 -1.51973982E+01  7.59869910E+00  7.59869910E+00
 -1.51973982E+01  7.59869910E+00  7.59869910E+00 -1.51973982E+01  7.59869910E+00
  7.59869910E+00 -1.51973982E+01  7.59869910E+00  7.59869910E+00 -1.51973982E+01
  7.59869910E+00  7.59869910E+00 -1.51973982E+01  7.59869910E+00  7.59869910E+00
 -1.51973982E+01  7.59869910E+00  7.59869910E+00 -1.51973982E+01  7.59869910E+00
  7.59869910E+00 -1.51973982E+01  7.59869910E+00  7.59869910E+00 -1.51973982E+01
  7.59869910E+00  7.59869910E+00 -1.51973982E+01  7.59869910E+00  7.59869910E+00
 -1.51973982E+01  7.59869910E+00  7.59869910E+00 -1.51973982E+01  7.59869910E+00
  7.59869910E+00 -1.51973982E+01  7.59869910E+00  7.59869910E+00 -1.51973982E+01
  7.59869910E+00  7.59869910E+00 -1.51973982E+01  7.59869910E+00  7.59869910E+00
 -1.51973982E+01  7.59869910E+00  7.59869910E+00 -1.51973982E+01  7.59869910E+00
  7.59869910E+00 -1.51973982E+01  7.59869910E+00  7.59869910E+00 -1.51973982E+01
  7.59869910E+00  7.59869910E+00 -1.51973982E+01  7.59869910E+00  7.59869910E+00
 -1.51973982E+01  7.59869910E+00  7.59869910E+00 -1.51973982E+01  7.59869910E+00
  7.59869910E+00 -1.51973982E+01  7.59869910E+00  7.59869910E+00 -1.51973982E+01
  7.59869910E+00  7.59869910E+00 -1.51973982E+01  7.59869910E+00  7.59869910E+00
 -1.51973982E+01  7.59869910E+00  7.59869910E+00 -1.51973982E+01  7.59869910E+00
  7.59869910E+00 -1.51973982E+01  7.59869910E+00  7.59869910E+00 -1.51973982E+01
  7.59869910E+00  7.59869910E+00 -1.51973982E+01  7.59869910E+00  7.59869910E+00
 -1.51973982E+01  7.59869910E+00  7.59869910E+00 -1.51973982E+01  7.59869910E+00
  7.59869910E+00 -1.51973982E+01  7.59869910E+00  7.59869910E+00 -1.51973982E+01
  7.59869910E+00  7.59869910E+00 -1.51973982E+01  7.59869910E+00  7.59869910E+00
 -1.51973982E+01  7.59869910E+00  7.59869910E+00 -1.51973982E+01  7.59869910E+00
  7.59869910E+00 -1.51973982E+01  7.59869910E+00  7.59869910E+00 -1.51973982E+01
  7.59869910E+00  7.59869910E+00 -1.51973982E+01  7.59869910E+00  7.59869910E+00
 -1.51973982E+01  7.59869910E+00  7.59869910E+00 -1.51973982E+01  7.59869910E+00
  7.59869910E+00 -1.51973982E+01  7.59869910E+00  7.59869910E+00 -1.51973982E+01
  7.59869910E+00  7.59869910E+00 -1.51973982E+01  7.59869910E+00  7.59869910E+00
 -1.51973982E+01  7.59869910E+00  7.59869910E+00 -1.51973982E+01  7.59869910E+00
  7.59869910E+00 -1.51973982E+01  7.59869910E+00  7.59869910E+00 -1.51973982E+01
  7.59869910E+00  7.59869910E+00 -1.51973982E+01  7.59869910E+00  7.59869910E+00
 -1.51973982E+01  7.59869910E+00  7.59869910E+00 -1.51973982E+01  7.59869910E+00
  7.59869910E+00 -1.51973982E+01  7.59869910E+00  7.59869910E+00 -1.51973982E+01
  7.59869910E+00  7.59869910E+00 -1.51973982E+01  7.59869910E+00  7.59869910E+00
 -1.51973982E+01  7.59869910E+00  7.59869910E+00 -1.51973982E+01  7.59869910E+00
  7.59869910E+00 -1.51973982E+01  7.59869910E+00  7.59869910E+00 -1.51973982E+01
  7.59869910E+00  7.59869910E+00 -1.51973982E+01  7.59869910E+00  7.59869910E+00
 -1.51973982E+01  7.59869910E+00  7.59869910E+00 -1.51973982E+01  7.59869910E+00
  7.59869910E+00 -1.51973982E+01  7.59869910E+00  7.59869910E+00 -1.51973982E+01
  7.59869910E+00  7.59869910E+00 -1.51973982E+01  7.59869910E+00  7.59869910E+00
 -1.51973982E+01  7.59869910E+00  7.59869910E+00 -1.51973982E+01  7.59869910E+00
  7.59869910E+00 -1.51973982E+01  7.59869910E+00  7.59869910E+00 -1.51973982E+01
  7.59869910E+00  7.59869910E+00 -1.51973982E+01  7.59869910E+00  7.59869910E+00
 -1.51973982E+01  7.59869910E+00  7.59869910E+00 -1.51973982E+01  7.59869910E+00
  7.59869910E+00 -1.51973982E+01  7.59869910E+00  7.59869910E+00 -1.51973982E+01
  7.59869910E+00  7.59869910E+00 -1.51973982E+01  7.59869910E+00  7.59869910E+00
 -1.51973982E+01  7.59869910E+00  7.59869910E+00 -1.51973982E+01  7.59869910E+00
  7.59869910E+00 -1.51973982E+01  7.59869910E+00  7.59869910E+00 -1.51973982E+01
  7.59869910E+00  7.59869910E+00 -1.51973982E+01  7.59869910E+00  7.59869910E+00
 -1.51973982E+01  7.59869910E+00  7.59869910E+00 -1.51973982E+01  7.59869910E+00
  7.59869910E+00 -1.51973982E+01  7.59869910E+00  7.59869910E+00 -1.51973982E+01
  7.59869910E+00  7.59869910E+00 -1.51973982E+01  7.59869910E+00  7.59869910E+00
 -1.51973982E+01  7.59869910E+00  7.59869910E+00 -1.51973982E+01  7.59869910E+00
  7.59869910E+00 -1.51973982E+01  7.59869910E+00  7.59869910E+00 -1.51973982E+01
  7.59869910E+00  7.59869910E+00 -1.51973982E+01  7.59869910E+00  7.59869910E+00
 -1.51973982E+01  7.59869910E+00  7.59869910E+00 -1.51973982E+01  7.59869910E+00
  7.59869910E+00 -1.51973982E+01  7.59869910E+00  7.59869910E+00 -1.51973982E+01
  7.59869910E+00  7.59869910E+00 -1.51973982E+01  7.59869910E+00  7.59869910E+00
 -1.51973982E+01  7.59869910E+00  7.59869910E+00 -1.51973982E+01  7.59869910E+00
  7.59869910E+00 -1.51973982E+01  7.59869910E+00  7.59869910E+00 -1.51973982E+01
  7.59869910E+00  7.59869910E+00 -1.51973982E+01  7.59869910E+00  7.59869910E+00
 -1.51973982E+01  7.59869910E+00  7.59869910E+00 -1.51973982E+01  7.59869910E+00
  7.59869910E+00 -1.51973982E+01  7.59869910E+00  7.59869910E+00 -1.51973982E+01
  7.59869910E+00  7.59869910E+00 -1.51973982E+01  7.59869910E+00  7.59869910E+00
 -1.51973982E+01  7.59869910E+00  7.59869910E+00 -1.51973982E+01  7.59869910E+00
  7.59869910E+00 -1.51973982E+01  7.59869910E+00  7.59869910E+00 -1.51973982E+01
  7.59869910E+00  7.59869910E+00 -1.51973982E+01  7.59869910E+00  7.59869910E+00
 -1.51973982E+01  7.59869910E+00  7.59869910E+00 -1.51973982E+01  7.59869910E+00
  7.59869910E+00 -1.51973982E+01  7.59869910E+00  7.59869910E+00 -1.51973982E+01
  7.59869910E+00  7.59869910E+00 -1.51973982E+01  7.59869910E+00  7.59869910E+00
 -1.51973982E+01  7.59869910E+00  7.59869910E+00 -1.51973982E+01  7.59869910E+00
  7.59869910E+00 -1.51973982E+01  7.59869910E+00  7.59869910E+00 -1.51973982E+01
  7.59869910E+00  7.59869910E+00 -1.51973982E+01  7.59869910E+00  7.59869910E+00
 -1.51973982E+01  7.59869910E+00  7.59869910E+00 -1.51973982E+01  7.59869910E+00
  7.59869910E+00 -1.51973982E+01  7.59869910E+00  7.59869910E+00 -1.51973982E+01
  7.59869910E+00  7.59869910E+00 -1.51973982E+01  7.59869910E+00  7.59869910E+00
 -1.51973982E+01  7.59869910E+00  7.59869910E+00 -1.51973982E+01  7.59869910E+00
  7.59869910E+00 -1.51973982E+01  7.59869910E+00  7.59869910E+00 -1.51973982E+01
  7.59869910E+00  7.59869910E+00 -1.51973982E+01  7.59869910E+00  7.59869910E+00
 -1.51973982E+01  7.59869910E+00  7.59869910E+00 -1.51973982E+01  7.59869910E+00
  7.59869910E+00 -1.51973982E+01  7.59869910E+00  7.59869910E+00 -1.51973982E+01
  7.59869910E+00  7.59869910E+00 -1.51973982E+01  7.59869910E+00  7.59869910E+00
 -1.51973982E+01  7.59869910E+00  7.59869910E+00 -1.51973982E+01  7.59869910E+00
  7.59869910E+00 -1.51973982E+01  7.59869910E+00  7.59869910E+00 -1.51973982E+01
  7.59869910E+00  7.59869910E+00 -1.51973982E+01  7.59869910E+00  7.59869910E+00
 -1.51973982E+01  7.59869910E+00  7.59869910E+00 -1.51973982E+01  7.59869910E+00
  7.59869910E+00 -1.51973982E+01  7.59869910E+00  7.59869910E+00 -1.51973982E+01
  7.59869910E+00  7.59869910E+00 -1.51973982E+01  7.59869910E+00  7.59869910E+00
 -1.51973982E+01  7.59869910E+00  7.59869910E+00 -1.51973982E+01  7.59869910E+00
  7.59869910E+00 -1.51973982E+01  7.59869910E+00  7.59869910E+00 -1.51973982E+01
  7.59869910E+00  7.59869910E+00 -1.51973982E+01  7.59869910E+00  7.59869910E+00
 -1.51973982E+01  7.59869910E+00  7.59869910E+00 -1.51973982E+01  7.59869910E+00
  7.59869910E+00 -1.51973982E+01  7.59869910E+00  7.59869910E+00 -1.51973982E+01
  7.59869910E+00  7.59869910E+00 -1.51973982E+01  7.59869910E+00  7.59869910E+00
 -1.51973982E+01  7.59869910E+00  7.59869910E+00 -1.51973982E+01  7.59869910E+00
  7.59869910E+00 -1.51973982E+01  7.59869910E+00  7.59869910E+00 -1.51973982E+01
  7.59869910E+00  7.59869910E+00 -1.51973982E+01  7.59869910E+00  7.59869910E+00
 -1.51973982E+01  7.59869910E+00  7.59869910E+00 -1.51973982E+01  7.59869910E+00
  7.59869910E+00 -1.51973982E+01  7.59869910E+00  7.59869910E+00 -1.51973982E+01
  7.59869910E+00  7.59869910E+00 -1.51973982E+01  7.59869910E+00  7.59869910E+00
 -1.51973982E+01  7.59869910E+00  7.59869910E+00 -1.51973982E+01  7.59869910E+00
  7.59869910E+00 -1.51973982E+01  7.59869910E+00  7.59869910E+00 -1.51973982E+01
  7.59869910E+00  7.59869910E+00 -1.51973982E+01  7.59869910E+00  7.59869910E+00
 -1.51973982E+01  7.59869910E+00  7.59869910E+00 -1.51973982E+01  7.59869910E+00
  7.59869910E+00 -1.51973982E+01  7.59869910E+00  7.59869910E+00 -1.51973982E+01
  7.59869910E+00  7.59869910E+00 -1.51973982E+01  7.59869910E+00  7.59869910E+00
 -1.51973982E+01  7.59869910E+00  7.59869910E+00 -1.51973982E+01  7.59869910E+00
  7.59869910E+00 -1.51973982E+01  7.59869910E+00  7.59869910E+00 -1.51973982E+01
  7.59869910E+00  7.59869910E+00 -1.51973982E+01  7.59869910E+00  7.59869910E+00
 -1.51973982E+01  7.59869910E+00  7.59869910E+00 -1.51973982E+01  7.59869910E+00
  7.59869910E+00 -1.51973982E+01  7.59869910E+00  7.59869910E+00 -1.51973982E+01
  7.59869910E+00  7.59869910E+00 -1.51973982E+01  7.59869910E+00  7.59869910E+00
 -1.51973982E+01  7.59869910E+00  7.59869910E+00 -1.51973982E+01  7.59869910E+00
  7.59869910E+00 -1.51973982E+01  7.59869910E+00  7.59869910E+00 -1.51973982E+01
  7.59869910E+00  7.59869910E+00 -1.51973982E+01  7.59869910E+00  7.59869910E+00
 -1.51973982E+01  7.59869910E+00  7.59869910E+00 -1.51973982E+01  7.59869910E+00
  7.59869910E+00 -1.51973982E+01  7.59869910E+00  7.59869910E+00 -1.51973982E+01
  7.59869910E+00  7.59869910E+00 -1.51973982E+01  7.59869910E+00  7.59869910E+00
 -1.51973982E+01  7.59869910E+00  7.59869910E+00 -1.51973982E+01  7.59869910E+00
  7.59869910E+00 -1.51973982E+01  7.59869910E+00  7.59869910E+00 -1.51973982E+01
  7.59869910E+00  7.59869910E+00 -1.51973982E+01  7.59869910E+00  7.59869910E+00
 -1.51973982E+01  7.59869910E+00  7.59869910E+00 -1.51973982E+01  7.59869910E+00
  7.59869910E+00 -1.51973982E+01  7.59869910E+00  7.59869910E+00 -1.51973982E+01
  7.59869910E+00  7.59869910E+00 -1.51973982E+01  7.59869910E+00  7.59869910E+00
 -1.51973982E+01  7.59869910E+00  7.59869910E+00 -1.51973982E+01  7.59869910E+00
  7.59869910E+00 -1.51973982E+01  7.59869910E+00  7.59869910E+00 -1.51973982E+01
  7.59869910E+00  7.59869910E+00 -1.51973982E+01  7.59869910E+00  7.59869910E+00
 -1.51973982E+01  7.59869910E+00  7.59869910E+00 -1.51973982E+01  7.59869910E+00
  7.59869910E+00 -1.51973982E+01  7.59869910E+00  7.59869910E+00 -1.51973982E+01
  7.59869910E+00  7.59869910E+00 -1.51973982E+01  7.59869910E+00  7.59869910E+00
 -1.51973982E+01  7.59869910E+00  7.59869910E+00 -1.51973982E+01  7.59869910E+00
  7.59869910E+00 -1.51973982E+01  7.59869910E+00  7.59869910E+00 -1.51973982E+01
  7.59869910E+00  7.59869910E+00 -1.51973982E+01  7.59869910E+00  7.59869910E+00
 -1.51973982E+01  7.59869910E+00  7.59869910E+00 -1.51973982E+01  7.59869910E+00
  7.59869910E+00 -1.51973982E+01  7.59869910E+00  7.59869910E+00 -1.51973982E+01
  7.59869910E+00  7.59869910E+00 -1.51973982E+01  7.59869910E+00  7.59869910E+00
 -1.51973982E+01  7.59869910E+00  7.59869910E+00 -1.51973982E+01  7.59869910E+00
  7.59869910E+00 -1.51973982E+01  7.59869910E+00  7.59869910E+00 -1.51973982E+01
  7.59869910E+00  7.59869910E+00 -1.51973982E+01  7.59869910E+00  7.59869910E+00
 -1.51973982E+01  7.59869910E+00  7.59869910E+00 -1.51973982E+01  7.59869910E+00
  7.59869910E+00 -1.51973982E+01  7.59869910E+00  7.59869910E+00 -1.51973982E+01
  7.59869910E+00  7.59869910E+00 -1.51973982E+01  7.59869910E+00  7.59869910E+00
 -1.51973982E+01  7.59869910E+00  7.59869910E+00 -1.51973982E+01  7.59869910E+00
  7.59869910E+00 -1.51973982E+01  7.59869910E+00  7.59869910E+00 -1.51973982E+01
  7.59869910E+00  7.59869910E+00 -1.51973982E+01  7.59869910E+00  7.59869910E+00
 -1.51973982E+01  7.59869910E+00  7.59869910E+00 -1.51973982E+01  7.59869910E+00
  7.59869910E+00 -1.51973982E+01  7.59869910E+00  7.59869910E+00 -1.51973982E+01
  7.59869910E+00  7.59869910E+00 -1.51973982E+01  7.59869910E+00  7.59869910E+00
 -1.51973982E+01  7.59869910E+00  7.59869910E+00 -1.51973982E+01  7.59869910E+00
  7.59869910E+00 -1.51973982E+01  7.59869910E+00  7.59869910E+00 -1.51973982E+01
  7.59869910E+00  7.59869910E+00 -1.51973982E+01  7.59869910E+00  7.59869910E+00
 -1.51973982E+01  7.59869910E+00  7.59869910E+00 -1.51973982E+01  7.59869910E+00
  7.59869910E+00 -1.51973982E+01  7.59869910E+00  7.59869910E+00 -1.51973982E+01
  7.59869910E+00  7.59869910E+00 -1.51973982E+01  7.59869910E+00  7.59869910E+00
 -1.51973982E+01  7.59869910E+00  7.59869910E+00 -1.51973982E+01  7.59869910E+00
  7.59869910E+00 -1.51973982E+01  7.59869910E+00  7.59869910E+00 -1.51973982E+01
  7.59869910E+00  7.59869910E+00 -1.51973982E+01  7.59869910E+00  7.59869910E+00
 -1.51973982E+01  7.59869910E+00  7.59869910E+00 -1.51973982E+01  7.59869910E+00
  7.59869910E+00 -1.51973982E+01  7.59869910E+00  7.59869910E+00 -1.51973982E+01
  7.59869910E+00  7.59869910E+00 -1.51973982E+01  7.59869910E+00  7.59869910E+00
 -1.51973982E+01  7.59869910E+00  7.59869910E+00 -1.51973982E+01  7.59869910E+00
  7.59869910E+00 -1.51973982E+01  7.59869910E+00  7.59869910E+00 -1.51973982E+01
  7.59869910E+00  7.59869910E+00 -1.51973982E+01  7.59869910E+00  7.59869910E+00
 -1.51973982E+01  7.59869910E+00  7.59869910E+00 -1.51973982E+01  7.59869910E+00
  7.59869910E+00 -1.51973982E+01  7.59869910E+00  7.59869910E+00 -1.51973982E+01
  7.59869910E+00  7.59869910E+00 -1.51973982E+01  7.59869910E+00  7.59869910E+00
 -1.51973982E+01  7.59869910E+00  7.59869910E+00 -1.51973982E+01  7.59869910E+00
  7.59869910E+00 -1.51973982E+01  7.59869910E+00  7.59869910E+00 -1.51973982E+01
  7.59869910E+00  7.59869910E+00 -1.51973982E+01  7.59869910E+00  7.59869910E+00
 -1.51973982E+01  7.59869910E+00  7.59869910E+00 -1.51973982E+01  7.59869910E+00
  7.59869910E+00 -1.51973982E+01  7.59869910E+00  7.59869910E+00
%FLAG ATOMIC_NUMBER                                                             
%FORMAT(10I8)                                                                   
      11      11      11      11      17      17      17      17       8       1
       1       8       1       1       8       1       1       8       1       1
       8       1       1       8       1       1       8       1       1       8
       1       1       8       1       1       8       1       1       8       1
       1       8       1       1       8       1       1       8       1       1
       8       1       1       8       1       1       8       1       1       8
       1       1       8       1       1       8       1       1       8       1
       1       8       1       1       8       1       1       8       1       1
       8       1       1       8       1       1       8       1       1       8
       1       1       8       1       1       8       1       1       8       1
       1       8       1       1       8       1       1       8       1       1
       8       1       1       8       1       1       8       1       1       8
       1       1       8       1       1       8       1       1       8       1
       1       8       1       1       8       1       1       8       1       1
       8       1       1       8       1       1       8       1       1       8
       1       1       8       1       1       8       1       1       8       1
       1       8       1       1       8       1       1       8       1       1
       8       1       1       8       1       1       8       1       1       8
       1       1       8       1       1       8       1       1       8       1
       1       8       1       1       8       1       1       8       1       1
       8       1       1       8       1       1       8       1       1       8
       1       1       8       1       1       8       1       1       8       1
       1       8       1       1       8       1       1       8       1       1
       8       1       1       8       1       1       8       1       1       8
       1       1       8       1       1       8       1       1       8       1
       1       8       1       1       8       1       1       8       1       1
       8       1       1       8       1       1       8       1       1       8
       1       1       8       1       1       8       1       1       8       1
       1       8       1       1       8       1       1       8       1       1
       8       1       1       8       1       1       8       1       1       8
       1       1       8       1       1       8       1       1       8       1
       1       8       1       1       8       1       1       8       1       1
       8       1       1       8       1       1       8       1       1       8
       1       1       8       1       1       8       1       1       8       1
       1       8       1       1       8       1       1       8       1       1
       8       1       1       8       1       1       8       1       1       8
       1       1       8       1       1       8       1       1       8       1
       1       8       1       1       8       1       1       8       1       1
       8       1       1       8       1       1       8       1       1       8
       1       1       8       1       1       8       1       1       8       1
       1       8       1       1       8       1       1       8       1       1
       8       1       1       8       1       1       8       1       1       8
       1       1       8       1       1       8       1       1       8       1
       1       8       1       1       8       1       1       8       1       1
       8       1       1       8       1       1       8       1       1       8
       1       1       8       1       1       8       1       1       8       1
       1       8       1       1       8       1       1       8       1       1
       8       1       1       8       1       1       8       1       1       8
       1       1       8       1       1       8       1       1       8       1
       1       8       1       1       8       1       1       8       1       1
       8       1       1       8       1       1       8       1       1       8
       1       1       8       1       1       8       1       1       8       1
       1       8       1       1       8       1       1       8       1       1
       8       1       1       8       1       1       8       1       1       8
       1       1       8       1       1       8       1       1       8       1
       1       8       1       1       8       1       1       8       1       1
       8       1       1       8       1       1       8       1       1       8
       1       1       8       1       1       8       1       1       8       1
       1       8       1       1       8       1       1       8       1       1
       8       1       1       8       1       1       8       1       1       8
       1       1       8       1       1       8       1       1       8       1
       1       8       1       1       8       1       1       8       1       1
       8       1       1       8       1       1       8       1       1       8
       1       1       8       1       1       8       1       1       8       1
       1       8       1       1       8       1       1       8       1       1
       8       1       1       8       1       1       8       1       1       8
       1       1       8       1       1       8       1       1       8       1
       1       8       1       1       8       1       1       8       1       1
       8       1       1       8       1       1       8       1       1       8
       1       1       8       1       1       8       1       1       8       1
       1       8       1       1       8       1       1       8       1       1
       8       1       1       8       1       1       8       1       1       8
       1       1       8       1       1       8       1       1       8       1
       1       8       1       1       8       1       1       8       1       1
       8       1       1       8       1       1       8       1       1       8
       1       1       8       1       1       8       1       1       8       1
       1       8       1       1       8       1       1       8       1       1
       8       1       1       8       1       1       8       1       1       8
       1       1       8       1       1       8       1       1       8       1
       1       8       1       1       8       1       1       8       1       1
       8       1       1       8       1       1       8       1       1       8
       1       1       8       1       1       8       1       1       8       1
       1       8       1       1       8       1       1       8       1       1
       8       1       1       8       1       1       8       1       1       8
       1       1       8       1       1       8       1       1       8       1
       1       8       1       1       8       1       1       8       1       1
       8       1       1       8       1       1       8       1       1       8
       1       1       8       1       1       8       1       1       8       1
       1       8       1       1       8       1       1       8       1       1
       8       1       1       8       1       1       8       1       1       8
       1       1       8       1       1       8       1       1       8       1
       1       8       1       1       8       1       1       8       1       1
       8       1       1       8       1       1       8       1       1       8
       1       1       8       1       1       8       1       1       8       1
       1       8       1       1       8       1       1       8       1       1
       8       1       1       8       1       1       8       1       1       8
       1       1       8       1       1       8       1       1       8       1
       1       8       1       1       8       1       1       8       1       1
       8       1       1       8       1       1       8       1       1       8
       1       1       8       1       1       8       1       1       8       1
       1       8       1       1       8       1       1       8       1       1
       8       1       1       8       1       1       8       1       1       8
       1       1       8       1       1       8       1       1       8       1
       1       8       1       1       8       1       1       8       1       1
       8       1       1       8       1       1       8       1       1       8
       1       1       8       1       1       8       1       1       8       1
       1       8       1       1       8       1       1       8       1       1
       8       1       1       8       1       1       8       1       1       8
       1       1       8       1       1       8       1       1       8       1
       1       8       1       1       8       1       1       8       1       1
       8       1       1       8       1       1       8       1       1       8
       1       1       8       1       1       8       1       1       8       1
       1       8       1       1       8       1       1       8       1       1
       8       1       1       8       1       1       8       1       1       8
       1       1       8       1       1       8       1       1       8       1
       1       8       1       1       8       1       1       8       1       1
       8       1       1       8       1       1       8       1       1       8
       1       1       8       1       1       8       1       1       8       1
       1       8       1       1       8       1       1       8       1       1
       8       1       1       8       1       1       8       1       1       8
       1       1       8       1       1       8       1       1       8       1
       1       8       1       1       8       1       1       8       1       1
       8       1       1       8       1       1       8       1       1       8
       1       1       8       1       1       8       1       1       8       1
       1       8       1       1       8       1       1       8       1       1
       8       1       1       8       1       1       8       1       1       8
       1       1       8       1       1       8       1       1       8       1
       1       8       1       1       8       1       1       8       1       1
       8       1       1       8       1       1       8       1       1       8
       1       1       8       1       1       8       1       1       8       1
       1       8       1       1       8       1       1       8       1       1
       8       1       1       8       1       1       8       1       1       8
       1       1       8       1       1       8       1       1       8       1
       1       8       1       1       8       1       1       8       1       1
       8       1       1       8       1       1       8       1       1       8
       1       1       8       1       1       8       1       1       8       1
       1       8       1       1       8       1       1       8       1       1
       8       1       1       8       1       1       8       1       1       8
       1       1       8       1       1       8       1       1       8       1
       1       8       1       1       8       1       1       8       1       1
       8       1       1       8       1       1       8       1       1       8
       1       1       8       1       1       8       1       1       8       1
       1       8       1       1       8       1       1       8       1       1
       8       1       1       8       1       1       8       1       1       8
       1       1       8       1       1       8       1       1       8       1
       1       8       1       1       8       1       1       8       1       1
       8       1       1       8       1       1       8       1       1       8
       1       1       8       1       1       8       1       1       8       1
       1       8       1       1       8       1       1       8       1       1
       8       1       1       8       1       1       8       1       1       8
       1       1       8       1       1       8       1       1       8       1
       1       8       1       1       8       1       1       8       1       1
       8       1       1       8       1       1       8       1       1       8
       1       1       8       1       1       8       1       1       8       1
       1       8       1       1       8       1       1       8       1       1
       8       1       1       8       1       1       8       1       1       8
       1       1       8       1       1       8       1       1       8       1
       1       8       1       1       8       1       1       8       1       1
       8       1       1       8       1       1       8       1       1       8
       1       1       8       1       1       8       1       1       8       1
       1       8       1       1       8       1       1       8       1       1
       8       1       1       8       1       1       8       1       1       8
       1       1       8       1       1       8       1       1       8       1
       1       8       1       1       8       1       1       8       1       1
       8       1       1       8       1       1       8       1       1       8
       1       1       8       1       1       8       1       1       8       1
       1       8       1       1       8       1       1       8       1       1
       8       1       1       8       1       1       8       1       1       8
       1       1       8       1       1       8       1       1       8       1
       1       8       1       1       8       1       1       8       1       1
       8       1       1       8       1       1       8       1       1       8
       1       1       8       1       1       8       1       1       8       1
       1       8       1       1       8       1       1       8       1       1
       8       1       1       8       1       1       8       1       1       8
       1       1       8       1       1       8       1       1       8       1
       1       8       1       1       8       1       1       8       1       1
       8       1       1       8       1       1       8       1       1       8
       1       1       8       1       1       8       1       1       8       1
       1       8       1       1       8       1       1       8       1       1
       8       1       1       8       1       1       8       1       1       8
       1       1       8       1       1       8       1       1       8       1
       1       8       1       1       8       1       1       8       1       1
       8       1       1       8       1       1       8       1       1       8
       1       1       8       1       1       8       1       1       8       1
       1       8       1       1
%FLAG MASS                                                                      
%FORMAT(5E16.8)                                                                 
  2.29900000E+01  2.29900000E+01  2.29900000E+01  2.29900000E+01  3.54500000E+01
  3.54500000E+01  3.54500000E+01  3.54500000E+01  1.60000000E+01  1.00800000E+00
  1.00800000E+00  1.60000000E+01  1.00800000E+00  1.00800000E+00  1.60000000E+01
  1.00800000E+00  1.00800000E+00  1.60000000E+01  1.00800000E+00  1.00800000E+00
  1.60000000E+01  1.00800000E+00  1.00800000E+00  1.60000000E+01  1.00800000E+00
  1.00800000E+00  1.60000000E+01  1.00800000E+00  1.00800000E+00  1.60000000E+01
  1.00800000E+00  1.00800000E+00  1.60000000E+01  1.00800000E+00  1.00800000E+00
  1.60000000E+01  1.00800000E+00  1.00800000E+00  1.60000000E+01  1.00800000E+00
  1.00800000E+00  1.60000000E+01  1.00800000E+00  1.00800000E+00  1.60000000E+01
  1.00800000E+00  1.00800000E+00  1.60000000E+01  1.00800000E+00  1.00800000E+00
  1.60000000E+01  1.00800000E+00  1.00800000E+00  1.60000000E+01  1.00800000E+00
  1.00800000E+00  1.60000000E+01  1.00800000E+00  1.00800000E+00  1.60000000E+01
  1.00800000E+00  1.00800000E+00  1.60000000E+01  1.00800000E+00  1.00800000E+00
  1.60000000E+01  1.00800000E+00  1.00800000E+00  1.60000000E+01  1.00800000E+00
  1.00800000E+00  1.60000000E+01  1.00800000E+00  1.00800000E+00  1.60000000E+01
  1.00800000E+00  1.00800000E+00  1.60000000E+01  1.00800000E+00  1.00800000E+00
  1.60000000E+01  1.00800000E+00  1.00800000E+00  1.60000000E+01  1.00800000E+00
  1.00800000E+00  1.60000000E+01  1.00800000E+00  1.00800000E+00  1.60000000E+01
  1.00800000E+00  1.00800000E+00  1.60000000E+01  1.00800000E+00  1.00800000E+00
  1.60000000E+01  1.00800000E+00  1.00800000E+00  1.60000000E+01  1.00800000E+00
  1.00800000E+00  1.60000000E+01  1.00800000E+00  1.00800000E+00  1.60000000E+01
  1.00800000E+00  1.00800000E+00  1.60000000E+01  1.00800000E+00  1.00800000E+00
  1.60000000E+01  1.00800000E+00  1.00800000E+00  1.60000000E+01  1.00800000E+00
  1.00800000E+00  1.60000000E+01  1.00800000E+00  1.00800000E+00  1.60000000E+01
  1.00800000E+00  1.00800000E+00  1.60000000E+01  1.00800000E+00  1.00800000E+00
  1.60000000E+01  1.00800000E+00  1.00800000E+00  1.60000000E+01  1.00800000E+00
  1.00800000E+00  1.60000000E+01  1.00800000E+00  1.00800000E+00  1.60000000E+01
  1.00800000E+00  1.00800000E+00  1.60000000E+01  1.00800000E+00  1.00800000E+00
  1.60000000E+01  1.00800000E+00  1.00800000E+00  1.60000000E+01  1.00800000E+00
  1.00800000E+00  1.60000000E+01  1.00800000E+00  1.00800000E+00  1.60000000E+01
  1.00800000E+00  1.00800000E+00  1.60000000E+01  1.00800000E+00  1.00800000E+00
  1.60000000E+01  1.00800000E+00  1.00800000E+00  1.60000000E+01  1.00800000E+00
  1.00800000E+00  1.60000000E+01  1.00800000E+00  1.00800000E+00  1.60000000E+01
  1.00800000E+00  1.00800000E+00  1.60000000E+01  1.00800000E+00  1.00800000E+00
  1.60000000E+01  1.00800000E+00  1.00800000E+00  1.60000000E+01  1.00800000E+00
  1.00800000E+00  1.60000000E+01  1.00800000E+00  1.00800000E+00  1.60000000E+01
  1.00800000E+00  1.00800000E+00  1.60000000E+01  1.00800000E+00  1.00800000E+00
  1.60000000E+01  1.00800000E+00  1.00800000E+00  1.60000000E+01  1.00800000E+00
  1.00800000E+00  1.60000000E+01  1.00800000E+00  1.00800000E+00  1.60000000E+01
  1.00800000E+00  1.00800000E+00  1.60000000E+01  1.00800000E+00  1.00800000E+00
  1.60000000E+01  1.00800000E+00  1.00800000E+00  1.60000000E+01  1.00800000E+00
  1.00800000E+00  1.60000000E+01  1.00800000E+00  1.00800000E+00  1.60000000E+01
  1.00800000E+00  1.00800000E+00  1.60000000E+01  1.00800000E+00  1.00800000E+00
  1.60000000E+01  1.00800000E+00  1.00800000E+00  1.60000000E+01  1.00800000E+00
  1.00800000E+00  1.60000000E+01  1.00800000E+00  1.00800000E+00  1.60000000E+01
  1.00800000E+00  1.00800000E+00  1.60000000E+01  1.00800000E+00  1.00800000E+00
  1.60000000E+01  1.00800000E+00  1.00800000E+00  1.60000000E+01  1.00800000E+00
  1.00800000E+00  1.60000000E+01  1.00800000E+00  1.00800000E+00  1.60000000E+01
  1.00800000E+00  1.00800000E+00  1.60000000E+01  1.00800000E+00  1.00800000E+00
  1.60000000E+01  1.00800000E+00  1.00800000E+00  1.60000000E+01  1.00800000E+00
  1.00800000E+00  1.60000000E+01  1.00800000E+00  1.00800000E+00  1.60000000E+01
  1.00800000E+00  1.00800000E+00  1.60000000E+01  1.00800000E+00  1.00800000E+00
  1.60000000E+01  1.00800000E+00  1.00800000E+00  1.60000000E+01  1.00800000E+00
  1.00800000E+00  1.60000000E+01  1.00800000E+00  1.00800000E+00  1.60000000E+01
  1.00800000E+00  1.00800000E+00  1.60000000E+01  1.00800000E+00  1.00800000E+00
  1.60000000E+01  1.00800000E+00  1.00800000E+00  1.60000000E+01  1.00800000E+00
  1.00800000E+00  1.60000000E+01  1.00800000E+00  1.00800000E+00  1.60000000E+01
  1.00800000E+00  1.00800000E+00  1.60000000E+01  1.00800000E+00  1.00800000E+00
  1.60000000E+01  1.00800000E+00  1.00800000E+00  1.60000000E+01  1.00800000E+00
  1.00800000E+00  1.60000000E+01  1.00800000E+00  1.00800000E+00  1.60000000E+01
  1.00800000E+00  1.00800000E+00  1.60000000E+01  1.00800000E+00  1.00800000E+00
  1.60000000E+01  1.00800000E+00  1.00800000E+00  1.60000000E+01  1.00800000E+00
  1.00800000E+00  1.60000000E+01  1.00800000E+00  1.00800000E+00  1.60000000E+01
  1.00800000E+00  1.00800000E+00  1.60000000E+01  1.00800000E+00  1.00800000E+00
  1.60000000E+01  1.00800000E+00  1.00800000E+00  1.60000000E+01  1.00800000E+00
  1.00800000E+00  1.60000000E+01  1.00800000E+00  1.00800000E+00  1.60000000E+01
  1.00800000E+00  1.00800000E+00  1.60000000E+01  1.00800000E+00  1.00800000E+00
  1.60000000E+01  1.00800000E+00  1.00800000E+00  1.60000000E+01  1.00800000E+00
  1.00800000E+00  1.60000000E+01  1.00800000E+00  1.00800000E+00  1.60000000E+01
  1.00800000E+00  1.00800000E+00  1.60000000E+01  1.00800000E+00  1.00800000E+00
  1.60000000E+01  1.00800000E+00  1.00800000E+00  1.60000000E+01  1.00800000E+00
  1.00800000E+00  1.60000000E+01  1.00800000E+00  1.00800000E+00  1.60000000E+01
  1.00800000E+00  1.00800000E+00  1.60000000E+01  1.00800000E+00  1.00800000E+00
  1.60000000E+01  1.00800000E+00  1.00800000E+00  1.60000000E+01  1.00800000E+00
  1.00800000E+00  1.60000000E+01  1.00800000E+00  1.00800000E+00  1.60000000E+01
  1.00800000E+00  1.00800000E+00  1.60000000E+01  1.00800000E+00  1.00800000E+00
  1.60000000E+01  1.00800000E+00  1.00800000E+00  1.60000000E+01  1.00800000E+00
  1.00800000E+00  1.60000000E+01  1.00800000E+00  1.00800000E+00  1.60000000E+01
  1.00800000E+00  1.00800000E+00  1.60000000E+01  1.00800000E+00  1.00800000E+00
  1.60000000E+01  1.00800000E+00  1.00800000E+00  1.60000000E+01  1.00800000E+00
  1.00800000E+00  1.60000000E+01  1.00800000E+00  1.00800000E+00  1.60000000E+01
  1.00800000E+00  1.00800000E+00  1.60000000E+01  1.00800000E+00  1.00800000E+00
  1.60000000E+01  1.00800000E+00  1.00800000E+00  1.60000000E+01  1.00800000E+00
  1.00800000E+00  1.60000000E+01  1.00800000E+00  1.00800000E+00  1.60000000E+01
  1.00800000E+00  1.00800000E+00  1.60000000E+01  1.00800000E+00  1.00800000E+00
  1.60000000E+01  1.00800000E+00  1.00800000E+00  1.60000000E+01  1.00800000E+00
  1.00800000E+00  1.60000000E+01  1.00800000E+00  1.00800000E+00  1.60000000E+01
  1.00800000E+00  1.00800000E+00  1.60000000E+01  1.00800000E+00  1.00800000E+00
  1.60000000E+01  1.00800000E+00  1.00800000E+00  1.60000000E+01  1.00800000E+00
  1.00800000E+00  1.60000000E+01  1.00800000E+00  1.00800000E+00  1.60000000E+01
  1.00800000E+00  1.00800000E+00  1.60000000E+01  1.00800000E+00  1.00800000E+00
  1.60000000E+01  1.00800000E+00  1.00800000E+00  1.60000000E+01  1.00800000E+00
  1.00800000E+00  1.60000000E+01  1.00800000E+00  1.00800000E+00  1.60000000E+01
  1.00800000E+00  1.00800000E+00  1.60000000E+01  1.00800000E+00  1.00800000E+00
  1.60000000E+01  1.00800000E+00  1.00800000E+00  1.60000000E+01  1.00800000E+00
  1.00800000E+00  1.60000000E+01  1.00800000E+00  1.00800000E+00  1.60000000E+01
  1.00800000E+00  1.00800000E+00  1.60000000E+01  1.00800000E+00  1.00800000E+00
  1.60000000E+01  1.00800000E+00  1.00800000E+00  1.60000000E+01  1.00800000E+00
  1.00800000E+00  1.60000000E+01  1.00800000E+00  1.00800000E+00  1.60000000E+01
  1.00800000E+00  1.00800000E+00  1.60000000E+01  1.00800000E+00  1.00800000E+00
  1.60000000E+01  1.00800000E+00  1.00800000E+00  1.60000000E+01  1.00800000E+00
  1.00800000E+00  1.60000000E+01  1.00800000E+00  1.00800000E+00  1.60000000E+01
  1.00800000E+00  1.00800000E+00  1.60000000E+01  1.00800000E+00  1.00800000E+00
  1.60000000E+01  1.00800000E+00  1.00800000E+00  1.60000000E+01  1.00800000E+00
  1.00800000E+00  1.60000000E+01  1.00800000E+00  1.00800000E+00  1.60000000E+01
  1.00800000E+00  1.00800000E+00  1.60000000E+01  1.00800000E+00  1.00800000E+00
  1.60000000E+01  1.00800000E+00  1.00800000E+00  1.60000000E+01  1.00800000E+00
  1.00800000E+00  1.60000000E+01  1.00800000E+00  1.00800000E+00  1.60000000E+01
  1.00800000E+00  1.00800000E+00  1.60000000E+01  1.00800000E+00  1.00800000E+00
  1.60000000E+01  1.00800000E+00  1.00800000E+00  1.60000000E+01  1.00800000E+00
  1.00800000E+00  1.60000000E+01  1.00800000E+00  1.00800000E+00  1.60000000E+01
  1.00800000E+00  1.00800000E+00  1.60000000E+01  1.00800000E+00  1.00800000E+00
  1.60000000E+01  1.00800000E+00  1.00800000E+00  1.60000000E+01  1.00800000E+00
  1.00800000E+00  1.60000000E+01  1.00800000E+00  1.00800000E+00  1.60000000E+01
  1.00800000E+00  1.00800000E+00  1.60000000E+01  1.00800000E+00  1.00800000E+00
  1.60000000E+01  1.00800000E+00  1.00800000E+00  1.60000000E+01  1.00800000E+00
  1.00800000E+00  1.60000000E+01  1.00800000E+00  1.00800000E+00  1.60000000E+01
  1.00800000E+00  1.00800000E+00  1.60000000E+01  1.00800000E+00  1.00800000E+00
  1.60000000E+01  1.00800000E+00  1.00800000E+00  1.60000000E+01  1.00800000E+00
  1.00800000E+00  1.60000000E+01  1.00800000E+00  1.00800000E+00  1.60000000E+01
  1.00800000E+00  1.00800000E+00  1.60000000E+01  1.00800000E+00  1.00800000E+00
  1.60000000E+01  1.00800000E+00  1.00800000E+00  1.60000000E+01  1.00800000E+00
  1.00800000E+00  1.60000000E+01  1.00800000E+00  1.00800000E+00  1.60000000E+01
  1.00800000E+00  1.00800000E+00  1.60000000E+01  1.00800000E+00  1.00800000E+00
  1.60000000E+01  1.00800000E+00  1.00800000E+00  1.60000000E+01  1.00800000E+00
  1.00800000E+00  1.60000000E+01  1.00800000E+00  1.00800000E+00  1.60000000E+01
  1.00800000E+00  1.00800000E+00  1.60000000E+01  1.00800000E+00  1.00800000E+00
  1.60000000E+01  1.00800000E+00  1.00800000E+00  1.60000000E+01  1.00800000E+00
  1.00800000E+00  1.60000000E+01  1.00800000E+00  1.00800000E+00  1.60000000E+01
  1.00800000E+00  1.00800000E+00  1.60000000E+01  1.00800000E+00  1.00800000E+00
  1.60000000E+01  1.00800000E+00  1.00800000E+00  1.60000000E+01  1.00800000E+00
  1.00800000E+00  1.60000000E+01  1.00800000E+00  1.00800000E+00  1.60000000E+01
  1.00800000E+00  1.00800000E+00  1.60000000E+01  1.00800000E+00  1.00800000E+00
  1.60000000E+01  1.00800000E+00  1.00800000E+00  1.60000000E+01  1.00800000E+00
  1.00800000E+00  1.60000000E+01  1.00800000E+00  1.00800000E+00  1.60000000E+01
  1.00800000E+00  1.00800000E+00  1.60000000E+01  1.00800000E+00  1.00800000E+00
  1.60000000E+01  1.00800000E+00  1.00800000E+00  1.60000000E+01  1.00800000E+00
  1.00800000E+00  1.60000000E+01  1.00800000E+00  1.00800000E+00  1.60000000E+01
  1.00800000E+00  1.00800000E+00  1.60000000E+01  1.00800000E+00  1.00800000E+00
  1.60000000E+01  1.00800000E+00  1.00800000E+00  1.60000000E+01  1.00800000E+00
  1.00800000E+00  1.60000000E+01  1.00800000E+00  1.00800000E+00  1.60000000E+01
  1.00800000E+00  1.00800000E+00  1.60000000E+01  1.00800000E+00  1.00800000E+00
  1.60000000E+01  1.00800000E+00  1.00800000E+00  1.60000000E+01  1.00800000E+00
  1.00800000E+00  1.60000000E+01  1.00800000E+00  1.00800000E+00  1.60000000E+01
  1.00800000E+00  1.00800000E+00  1.60000000E+01  1.00800000E+00  1.00800000E+00
  1.60000000E+01  1.00800000E+00  1.00800000E+00  1.60000000E+01  1.00800000E+00
  1.00800000E+00  1.60000000E+01  1.00800000E+00  1.00800000E+00  1.60000000E+01
  1.00800000E+00  1.00800000E+00  1.60000000E+01  1.00800000E+00  1.00800000E+00
  1.60000000E+01  1.00800000E+00  1.00800000E+00  1.60000000E+01  1.00800000E+00
  1.00800000E+00  1.60000000E+01  1.00800000E+00  1.00800000E+00  1.60000000E+01
  1.00800000E+00  1.00800000E+00  1.60000000E+01  1.00800000E+00  1.00800000E+00
  1.60000000E+01  1.00800000E+00  1.00800000E+00  1.60000000E+01  1.00800000E+00
  1.00800000E+00  1.60000000E+01  1.00800000E+00  1.00800000E+00  1.60000000E+01
  1.00800000E+00  1.00800000E+00  1.60000000E+01  1.00800000E+00  1.00800000E+00
  1.60000000E+01  1.00800000E+00  1.00800000E+00  1.60000000E+01  1.00800000E+00
  1.00800000E+00  1.60000000E+01  1.00800000E+00  1.00800000E+00  1.60000000E+01
  1.00800000E+00  1.00800000E+00  1.60000000E+01  1.00800000E+00  1.00800000E+00
  1.60000000E+01  1.00800000E+00  1.00800000E+00  1.60000000E+01  1.00800000E+00
  1.00800000E+00  1.60000000E+01  1.00800000E+00  1.00800000E+00  1.60000000E+01
  1.00800000E+00  1.00800000E+00  1.60000000E+01  1.00800000E+00  1.00800000E+00
  1.60000000E+01  1.00800000E+00  1.00800000E+00  1.60000000E+01  1.00800000E+00
  1.00800000E+00  1.60000000E+01  1.00800000E+00  1.00800000E+00  1.60000000E+01
  1.00800000E+00  1.00800000E+00  1.60000000E+01  1.00800000E+00  1.00800000E+00
  1.60000000E+01  1.00800000E+00  1.00800000E+00  1.60000000E+01  1.00800000E+00
  1.00800000E+00  1.60000000E+01  1.00800000E+00  1.00800000E+00  1.60000000E+01
  1.00800000E+00  1.00800000E+00  1.60000000E+01  1.00800000E+00  1.00800000E+00
  1.60000000E+01  1.00800000E+00  1.00800000E+00  1.60000000E+01  1.00800000E+00
  1.00800000E+00  1.60000000E+01  1.00800000E+00  1.00800000E+00  1.60000000E+01
  1.00800000E+00  1.00800000E+00  1.60000000E+01  1.00800000E+00  1.00800000E+00
  1.60000000E+01  1.00800000E+00  1.00800000E+00  1.60000000E+01  1.00800000E+00
  1.00800000E+00  1.60000000E+01  1.00800000E+00  1.00800000E+00  1.60000000E+01
  1.00800000E+00  1.00800000E+00  1.60000000E+01  1.00800000E+00  1.00800000E+00
  1.60000000E+01  1.00800000E+00  1.00800000E+00  1.60000000E+01  1.00800000E+00
  1.00800000E+00  1.60000000E+01  1.00800000E+00  1.00800000E+00  1.60000000E+01
  1.00800000E+00  1.00800000E+00  1.60000000E+01  1.00800000E+00  1.00800000E+00
  1.60000000E+01  1.00800000E+00  1.00800000E+00  1.60000000E+01  1.00800000E+00
  1.00800000E+00  1.60000000E+01  1.00800000E+00  1.00800000E+00  1.60000000E+01
  1.00800000E+00  1.00800000E+00  1.60000000E+01  1.00800000E+00  1.00800000E+00
  1.60000000E+01  1.00800000E+00  1.00800000E+00  1.60000000E+01  1.00800000E+00
  1.00800000E+00  1.60000000E+01  1.00800000E+00  1.00800000E+00  1.60000000E+01
  1.00800000E+00  1.00800000E+00  1.60000000E+01  1.00800000E+00  1.00800000E+00
  1.60000000E+01  1.00800000E+00  1.00800000E+00  1.60000000E+01  1.00800000E+00
  1.00800000E+00  1.60000000E+01  1.00800000E+00  1.00800000E+00  1.60000000E+01
  1.00800000E+00  1.00800000E+00  1.60000000E+01  1.00800000E+00  1.00800000E+00
  1.60000000E+01  1.00800000E+00  1.00800000E+00  1.60000000E+01  1.00800000E+00
  1.00800000E+00  1.60000000E+01  1.00800000E+00  1.00800000E+00  1.60000000E+01
  1.00800000E+00  1.00800000E+00  1.60000000E+01  1.00800000E+00  1.00800000E+00
  1.60000000E+01  1.00800000E+00  1.00800000E+00  1.60000000E+01  1.00800000E+00
  1.00800000E+00  1.60000000E+01  1.00800000E+00  1.00800000E+00  1.60000000E+01
  1.00800000E+00  1.00800000E+00  1.60000000E+01  1.00800000E+00  1.00800000E+00
  1.60000000E+01  1.00800000E+00  1.00800000E+00  1.60000000E+01  1.00800000E+00
  1.00800000E+00  1.60000000E+01  1.00800000E+00  1.00800000E+00  1.60000000E+01
  1.00800000E+00  1.00800000E+00  1.60000000E+01  1.00800000E+00  1.00800000E+00
  1.60000000E+01  1.00800000E+00  1.00800000E+00  1.60000000E+01  1.00800000E+00
  1.00800000E+00  1.60000000E+01  1.00800000E+00  1.00800000E+00  1.60000000E+01
  1.00800000E+00  1.00800000E+00  1.60000000E+01  1.00800000E+00  1.00800000E+00
  1.60000000E+01  1.00800000E+00  1.00800000E+00  1.60000000E+01  1.00800000E+00
  1.00800000E+00  1.60000000E+01  1.00800000E+00  1.00800000E+00  1.60000000E+01
  1.00800000E+00  1.00800000E+00  1.60000000E+01  1.00800000E+00  1.00800000E+00
  1.60000000E+01  1.00800000E+00  1.00800000E+00  1.60000000E+01  1.00800000E+00
  1.00800000E+00  1.60000000E+01  1.00800000E+00  1.00800000E+00  1.60000000E+01
  1.00800000E+00  1.00800000E+00  1.60000000E+01  1.00800000E+00  1.00800000E+00
  1.60000000E+01  1.00800000E+00  1.00800000E+00  1.60000000E+01  1.00800000E+00
  1.00800000E+00  1.60000000E+01  1.00800000E+00  1.00800000E+00  1.60000000E+01
  1.00800000E+00  1.00800000E+00  1.60000000E+01  1.00800000E+00  1.00800000E+00
  1.60000000E+01  1.00800000E+00  1.00800000E+00  1.60000000E+01  1.00800000E+00
  1.00800000E+00  1.60000000E+01  1.00800000E+00  1.00800000E+00  1.60000000E+01
  1.00800000E+00  1.00800000E+00  1.60000000E+01  1.00800000E+00  1.00800000E+00
  1.60000000E+01  1.00800000E+00  1.00800000E+00  1.60000000E+01  1.00800000E+00
  1.00800000E+00  1.60000000E+01  1.00800000E+00  1.00800000E+00  1.60000000E+01
  1.00800000E+00  1.00800000E+00  1.60000000E+01  1.00800000E+00  1.00800000E+00
  1.60000000E+01  1.00800000E+00  1.00800000E+00  1.60000000E+01  1.00800000E+00
  1.00800000E+00  1.60000000E+01  1.00800000E+00  1.00800000E+00  1.60000000E+01
  1.00800000E+00  1.00800000E+00  1.60000000E+01  1.00800000E+00  1.00800000E+00
  1.60000000E+01  1.00800000E+00  1.00800000E+00  1.60000000E+01  1.00800000E+00
  1.00800000E+00  1.60000000E+01  1.00800000E+00  1.00800000E+00  1.60000000E+01
  1.00800000E+00  1.00800000E+00  1.60000000E+01  1.00800000E+00  1.00800000E+00
  1.60000000E+01  1.00800000E+00  1.00800000E+00  1.60000000E+01  1.00800000E+00
  1.00800000E+00  1.60000000E+01  1.00800000E+00  1.00800000E+00  1.60000000E+01
  1.00800000E+00  1.00800000E+00  1.60000000E+01  1.00800000E+00  1.00800000E+00
  1.60000000E+01  1.00800000E+00  1.00800000E+00  1.60000000E+01  1.00800000E+00
  1.00800000E+00  1.60000000E+01  1.00800000E+00  1.00800000E+00  1.60000000E+01
  1.00800000E+00  1.00800000E+00  1.60000000E+01  1.00800000E+00  1.00800000E+00
  1.60000000E+01  1.00800000E+00  1.00800000E+00  1.60000000E+01  1.00800000E+00
  1.00800000E+00  1.60000000E+01  1.00800000E+00  1.00800000E+00  1.60000000E+01
  1.00800000E+00  1.00800000E+00  1.60000000E+01  1.00800000E+00  1.00800000E+00
  1.60000000E+01  1.00800000E+00  1.00800000E+00  1.60000000E+01  1.00800000E+00
  1.00800000E+00  1.60000000E+01  1.00800000E+00  1.00800000E+00  1.60000000E+01
  1.00800000E+00  1.00800000E+00  1.60000000E+01  1.00800000E+00  1.00800000E+00
  1.60000000E+01  1.00800000E+00  1.00800000E+00  1.60000000E+01  1.00800000E+00
  1.00800000E+00  1.60000000E+01  1.00800000E+00  1.00800000E+00  1.60000000E+01
  1.00800000E+00  1.00800000E+00  1.60000000E+01  1.00800000E+00  1.00800000E+00
  1.60000000E+01  1.00800000E+00  1.00800000E+00  1.60000000E+01  1.00800000E+00
  1.00800000E+00  1.60000000E+01  1.00800000E+00  1.00800000E+00  1.60000000E+01
  1.00800000E+00  1.00800000E+00  1.60000000E+01  1.00800000E+00  1.00800000E+00
  1.60000000E+01  1.00800000E+00  1.00800000E+00  1.60000000E+01  1.00800000E+00
  1.00800000E+00  1.60000000E+01  1.00800000E+00  1.00800000E+00  1.60000000E+01
  1.00800000E+00  1.00800000E+00  1.60000000E+01  1.00800000E+00  1.00800000E+00
  1.60000000E+01  1.00800000E+00  1.00800000E+00  1.60000000E+01  1.00800000E+00
  1.00800000E+00  1.60000000E+01  1.00800000E+00  1.00800000E+00  1.60000000E+01
  1.00800000E+00  1.00800000E+00  1.60000000E+01  1.00800000E+00  1.00800000E+00
  1.60000000E+01  1.00800000E+00  1.00800000E+00  1.60000000E+01  1.00800000E+00
  1.00800000E+00  1.60000000E+01  1.00800000E+00  1.00800000E+00  1.60000000E+01
  1.00800000E+00  1.00800000E+00  1.60000000E+01  1.00800000E+00  1.00800000E+00
  1.60000000E+01  1.00800000E+00  1.00800000E+00  1.60000000E+01  1.00800000E+00
  1.00800000E+00  1.60000000E+01  1.00800000E+00  1.00800000E+00  1.60000000E+01
  1.00800000E+00  1.00800000E+00  1.60000000E+01  1.00800000E+00  1.00800000E+00
  1.60000000E+01  1.00800000E+00  1.00800000E+00  1.60000000E+01  1.00800000E+00
  1.00800000E+00  1.60000000E+01  1.00800000E+00  1.00800000E+00  1.60000000E+01
  1.00800000E+00  1.00800000E+00  1.60000000E+01  1.00800000E+00  1.00800000E+00
  1.60000000E+01  1.00800000E+00  1.00800000E+00  1.60000000E+01  1.00800000E+00
  1.00800000E+00  1.60000000E+01  1.00800000E+00  1.00800000E+00  1.60000000E+01
  1.00800000E+00  1.00800000E+00  1.60000000E+01  1.00800000E+00  1.00800000E+00
  1.60000000E+01  1.00800000E+00  1.00800000E+00  1.60000000E+01  1.00800000E+00
  1.00800000E+00  1.60000000E+01  1.00800000E+00  1.00800000E+00  1.60000000E+01
  1.00800000E+00  1.00800000E+00  1.60000000E+01  1.00800000E+00  1.00800000E+00
  1.60000000E+01  1.00800000E+00  1.00800000E+00  1.60000000E+01  1.00800000E+00
  1.00800000E+00  1.60000000E+01  1.00800000E+00  1.00800000E+00  1.60000000E+01
  1.00800000E+00  1.00800000E+00  1.60000000E+01  1.00800000E+00  1.00800000E+00
  1.60000000E+01  1.00800000E+00  1.00800000E+00  1.60000000E+01  1.00800000E+00
  1.00800000E+00  1.60000000E+01  1.00800000E+00  1.00800000E+00  1.60000000E+01
  1.00800000E+00  1.00800000E+00  1.60000000E+01  1.00800000E+00  1.00800000E+00
  1.60000000E+01  1.00800000E+00  1.00800000E+00  1.60000000E+01  1.00800000E+00
  1.00800000E+00  1.60000000E+01  1.00800000E+00  1.00800000E+00  1.60000000E+01
  1.00800000E+00  1.00800000E+00  1.60000000E+01  1.00800000E+00  1.00800000E+00
  1.60000000E+01  1.00800000E+00  1.00800000E+00  1.60000000E+01  1.00800000E+00
  1.00800000E+00  1.60000000E+01  1.00800000E+00  1.00800000E+00  1.60000000E+01
  1.00800000E+00  1.00800000E+00  1.60000000E+01  1.00800000E+00  1.00800000E+00
  1.60000000E+01  1.00800000E+00  1.00800000E+00  1.60000000E+01  1.00800000E+00
  1.00800000E+00  1.60000000E+01  1.00800000E+00  1.00800000E+00  1.60000000E+01
  1.00800000E+00  1.00800000E+00  1.60000000E+01  1.00800000E+00  1.00800000E+00
  1.60000000E+01  1.00800000E+00  1.00800000E+00  1.60000000E+01  1.00800000E+00
  1.00800000E+00  1.60000000E+01  1.00800000E+00  1.00800000E+00  1.60000000E+01
  1.00800000E+00  1.00800000E+00  1.60000000E+01  1.00800000E+00  1.00800000E+00
  1.60000000E+01  1.00800000E+00  1.00800000E+00  1.60000000E+01  1.00800000E+00
  1.00800000E+00  1.60000000E+01  1.00800000E+00  1.00800000E+00  1.60000000E+01
  1.00800000E+00  1.00800000E+00  1.60000000E+01  1.00800000E+00  1.00800000E+00
  1.60000000E+01  1.00800000E+00  1.00800000E+00  1.60000000E+01  1.00800000E+00
  1.00800000E+00  1.60000000E+01  1.00800000E+00  1.00800000E+00  1.60000000E+01
  1.00800000E+00  1.00800000E+00  1.60000000E+01  1.00800000E+00  1.00800000E+00
  1.60000000E+01  1.00800000E+00  1.00800000E+00  1.60000000E+01  1.00800000E+00
  1.00800000E+00  1.60000000E+01  1.00800000E+00  1.00800000E+00  1.60000000E+01
  1.00800000E+00  1.00800000E+00  1.60000000E+01  1.00800000E+00  1.00800000E+00
  1.60000000E+01  1.00800000E+00  1.00800000E+00  1.60000000E+01  1.00800000E+00
  1.00800000E+00  1.60000000E+01  1.00800000E+00  1.00800000E+00  1.60000000E+01
  1.00800000E+00  1.00800000E+00  1.60000000E+01  1.00800000E+00  1.00800000E+00
  1.60000000E+01  1.00800000E+00  1.00800000E+00  1.60000000E+01  1.00800000E+00
  1.00800000E+00  1.60000000E+01  1.00800000E+00  1.00800000E+00  1.60000000E+01
  1.00800000E+00  1.00800000E+00  1.60000000E+01  1.00800000E+00  1.00800000E+00
  1.60000000E+01  1.00800000E+00  1.00800000E+00  1.60000000E+01  1.00800000E+00
  1.00800000E+00  1.60000000E+01  1.00800000E+00  1.00800000E+00  1.60000000E+01
  1.00800000E+00  1.00800000E+00  1.60000000E+01  1.00800000E+00  1.00800000E+00
  1.60000000E+01  1.00800000E+00  1.00800000E+00  1.60000000E+01  1.00800000E+00
  1.00800000E+00  1.60000000E+01  1.00800000E+00  1.00800000E+00  1.60000000E+01
  1.00800000E+00  1.00800000E+00  1.60000000E+01  1.00800000E+00  1.00800000E+00
  1.60000000E+01  1.00800000E+00  1.00800000E+00  1.60000000E+01  1.00800000E+00
  1.00800000E+00  1.60000000E+01  1.00800000E+00  1.00800000E+00  1.60000000E+01
  1.00800000E+00  1.00800000E+00  1.60000000E+01  1.00800000E+00  1.00800000E+00
  1.60000000E+01  1.00800000E+00  1.00800000E+00  1.60000000E+01  1.00800000E+00
  1.00800000E+00  1.60000000E+01  1.00800000E+00  1.00800000E+00  1.60000000E+01
  1.00800000E+00  1.00800000E+00  1.60000000E+01  1.00800000E+00  1.00800000E+00
  1.60000000E+01  1.00800000E+00  1.00800000E+00  1.60000000E+01  1.00800000E+00
  1.00800000E+00  1.60000000E+01  1.00800000E+00  1.00800000E+00  1.60000000E+01
  1.00800000E+00  1.00800000E+00  1.60000000E+01  1.00800000E+00  1.00800000E+00
  1.60000000E+01  1.00800000E+00  1.00800000E+00  1.60000000E+01  1.00800000E+00
  1.00800000E+00  1.60000000E+01  1.00800000E+00  1.00800000E+00  1.60000000E+01
  1.00800000E+00  1.00800000E+00  1.60000000E+01  1.00800000E+00  1.00800000E+00
  1.60000000E+01  1.00800000E+00  1.00800000E+00  1.60000000E+01  1.00800000E+00
  1.00800000E+00  1.60000000E+01  1.00800000E+00  1.00800000E+00  1.60000000E+01
  1.00800000E+00  1.00800000E+00  1.60000000E+01  1.00800000E+00  1.00800000E+00
  1.60000000E+01  1.00800000E+00  1.00800000E+00  1.60000000E+01  1.00800000E+00
  1.00800000E+00  1.60000000E+01  1.00800000E+00  1.00800000E+00  1.60000000E+01
  1.00800000E+00  1.00800000E+00  1.60000000E+01  1.00800000E+00  1.00800000E+00
  1.60000000E+01  1.00800000E+00  1.00800000E+00  1.60000000E+01  1.00800000E+00
  1.00800000E+00  1.60000000E+01  1.00800000E+00  1.00800000E+00  1.60000000E+01
  1.00800000E+00  1.00800000E+00  1.60000000E+01  1.00800000E+00  1.00800000E+00
  1.60000000E+01  1.00800000E+00  1.00800000E+00  1.60000000E+01  1.00800000E+00
  1.00800000E+00  1.60000000E+01  1.00800000E+00  1.00800000E+00  1.60000000E+01
  1.00800000E+00  1.00800000E+00  1.60000000E+01  1.00800000E+00  1.00800000E+00
  1.60000000E+01  1.00800000E+00  1.00800000E+00  1.60000000E+01  1.00800000E+00
  1.00800000E+00  1.60000000E+01  1.00800000E+00  1.00800000E+00  1.60000000E+01
  1.00800000E+00  1.00800000E+00  1.60000000E+01  1.00800000E+00  1.00800000E+00
  1.60000000E+01  1.00800000E+00  1.00800000E+00  1.60000000E+01  1.00800000E+00
  1.00800000E+00  1.60000000E+01  1.00800000E+00  1.00800000E+00  1.60000000E+01
  1.00800000E+00  1.00800000E+00  1.60000000E+01  1.00800000E+00  1.00800000E+00
  1.60000000E+01  1.00800000E+00  1.00800000E+00  1.60000000E+01  1.00800000E+00
  1.00800000E+00  1.60000000E+01  1.00800000E+00  1.00800000E+00  1.60000000E+01
  1.00800000E+00  1.00800000E+00  1.60000000E+01  1.00800000E+00  1.00800000E+00
  1.60000000E+01  1.00800000E+00  1.00800000E+00  1.60000000E+01  1.00800000E+00
  1.00800000E+00  1.60000000E+01  1.00800000E+00  1.00800000E+00  1.60000000E+01
  1.00800000E+00  1.00800000E+00  1.60000000E+01  1.00800000E+00  1.00800000E+00
  1.60000000E+01  1.00800000E+00  1.00800000E+00  1.60000000E+01  1.00800000E+00
  1.00800000E+00  1.60000000E+01  1.00800000E+00  1.00800000E+00  1.60000000E+01
  1.00800000E+00  1.00800000E+00  1.60000000E+01  1.00800000E+00  1.00800000E+00
  1.60000000E+01  1.00800000E+00  1.00800000E+00  1.60000000E+01  1.00800000E+00
  1.00800000E+00  1.60000000E+01  1.00800000E+00  1.00800000E+00  1.60000000E+01
  1.00800000E+00  1.00800000E+00  1.60000000E+01  1.00800000E+00  1.00800000E+00
  1.60000000E+01  1.00800000E+00  1.00800000E+00  1.60000000E+01  1.00800000E+00
  1.00800000E+00  1.60000000E+01  1.00800000E+00  1.00800000E+00  1.60000000E+01
  1.00800000E+00  1.00800000E+00  1.60000000E+01  1.00800000E+00  1.00800000E+00
  1.60000000E+01  1.00800000E+00  1.00800000E+00  1.60000000E+01  1.00800000E+00
  1.00800000E+00  1.60000000E+01  1.00800000E+00  1.00800000E+00  1.60000000E+01
  1.00800000E+00  1.00800000E+00  1.60000000E+01  1.00800000E+00  1.00800000E+00
  1.60000000E+01  1.00800000E+00  1.00800000E+00  1.60000000E+01  1.00800000E+00
  1.00800000E+00  1.60000000E+01  1.00800000E+00  1.00800000E+00  1.60000000E+01
  1.00800000E+00  1.00800000E+00  1.60000000E+01  1.00800000E+00  1.00800000E+00
  1.60000000E+01  1.00800000E+00  1.00800000E+00  1.60000000E+01  1.00800000E+00
  1.00800000E+00  1.60000000E+01  1.00800000E+00  1.00800000E+00  1.60000000E+01
  1.00800000E+00  1.00800000E+00  1.60000000E+01  1.00800000E+00  1.00800000E+00
  1.60000000E+01  1.00800000E+00  1.00800000E+00  1.60000000E+01  1.00800000E+00
  1.00800000E+00  1.60000000E+01  1.00800000E+00  1.00800000E+00  1.60000000E+01
  1.00800000E+00  1.00800000E+00  1.60000000E+01  1.00800000E+00  1.00800000E+00
  1.60000000E+01  1.00800000E+00  1.00800000E+00  1.60000000E+01  1.00800000E+00
  1.00800000E+00  1.60000000E+01  1.00800000E+00  1.00800000E+00  1.60000000E+01
  1.00800000E+00  1.00800000E+00  1.60000000E+01  1.00800000E+00  1.00800000E+00
  1.60000000E+01  1.00800000E+00  1.00800000E+00  1.60000000E+01  1.00800000E+00
  1.00800000E+00  1.60000000E+01  1.00800000E+00  1.00800000E+00  1.60000000E+01
  1.00800000E+00  1.00800000E+00  1.60000000E+01  1.00800000E+00  1.00800000E+00
  1.60000000E+01  1.00800000E+00  1.00800000E+00  1.60000000E+01  1.00800000E+00
  1.00800000E+00  1.60000000E+01  1.00800000E+00  1.00800000E+00  1.60000000E+01
  1.00800000E+00  1.00800000E+00  1.60000000E+01  1.00800000E+00  1.00800000E+00
  1.60000000E+01  1.00800000E+00  1.00800000E+00  1.60000000E+01  1.00800000E+00
  1.00800000E+00  1.60000000E+01  1.00800000E+00  1.00800000E+00  1.60000000E+01
  1.00800000E+00  1.00800000E+00  1.60000000E+01  1.00800000E+00  1.00800000E+00
  1.60000000E+01  1.00800000E+00  1.00800000E+00  1.60000000E+01  1.00800000E+00
  1.00800000E+00  1.60000000E+01  1.00800000E+00  1.00800000E+00  1.60000000E+01
  1.00800000E+00  1.00800000E+00  1.60000000E+01  1.00800000E+00  1.00800000E+00
  1.60000000E+01  1.00800000E+00  1.00800000E+00  1.60000000E+01  1.00800000E+00
  1.00800000E+00  1.60000000E+01  1.00800000E+00  1.00800000E+00
%FLAG ATOM_TYPE_INDEX                                                           
%FORMAT(10I8)                                                                   
       1       1       1       1       2       2       2       2       3       4
       4       3       4       4       3       4       4       3       4       4
       3       4       4       3       4       4       3       4       4       3
       4       4       3       4       4       3       4       4       3       4
       4       3       4       4       3       4       4       3       4       4
       3       4       4       3       4       4       3       4       4       3
       4       4       3       4       4       3       4       4       3       4
       4       3       4       4       3       4       4       3       4       4
       3       4       4       3       4       4       3       4       4       3
       4       4       3       4       4       3       4       4       3       4
       4       3       4       4       3       4       4       3       4       4
       3       4       4       3       4       4       3       4       4       3
       4       4       3       4       4       3       4       4       3       4
       4       3       4       4       3       4       4       3       4       4
       3       4       4       3       4       4       3       4       4       3
       4       4       3       4       4       3       4       4       3       4
       4       3       4       4       3       4       4       3       4       4
       3       4       4       3       4       4       3       4       4       3
       4       4       3       4       4       3       4       4       3       4
       4       3       4       4       3       4       4       3       4       4
       3       4       4       3       4       4       3       4       4       3
       4       4       3       4       4       3       4       4       3       4
       4       3       4       4       3       4       4       3       4       4
       3       4       4       3       4       4       3       4       4       3
       4       4       3       4       4       3       4       4       3       4
       4       3       4       4       3       4       4       3       4       4
       3       4       4       3       4       4       3       4       4       3
       4       4       3       4       4       3       4       4       3       4
       4       3       4       4       3       4       4       3       4       4
       3       4       4       3       4       4       3       4       4       3
       4       4       3       4       4       3       4       4       3       4
       4       3       4       4       3       4       4       3       4       4
       3       4       4       3       4       4       3       4       4       3
       4       4       3       4       4       3       4       4       3       4
       4       3       4       4       3       4       4       3       4       4
       3       4       4       3       4       4       3       4       4       3
       4       4       3       4       4       3       4       4       3       4
       4       3       4       4       3       4       4       3       4       4
       3       4       4       3       4       4       3       4       4       3
       4       4       3       4       4       3       4       4       3       4
       4       3       4       4       3       4       4       3       4       4
       3       4       4       3       4       4       3       4       4       3
       4       4       3       4       4       3       4       4       3       4
       4       3       4       4       3       4       4       3       4       4
       3       4       4       3       4       4       3       4       4       3
       4       4       3       4       4       3       4       4       3       4
       4       3       4       4       3       4       4       3       4       4
       3       4       4       3       4       4       3       4       4       3
       4       4       3       4       4       3       4       4       3       4
       4       3       4       4       3       4       4       3       4       4
       3       4       4       3       4       4       3       4       4       3
       4       4       3       4       4       3       4       4       3       4
       4       3       4       4       3       4       4       3       4       4
       3       4       4       3       4       4       3       4       4       3
       4       4       3       4       4       3       4       4       3       4
       4       3       4       4       3       4       4       3       4       4
       3       4       4       3       4       4       3       4       4       3
       4       4       3       4       4       3       4       4       3       4
       4       3       4       4       3       4       4       3       4       4
       3       4       4       3       4       4       3       4       4       3
       4       4       3       4       4       3       4       4       3       4
       4       3       4       4       3       4       4       3       4       4
       3       4       4       3       4       4       3       4       4       3
       4       4       3       4       4       3       4       4       3       4
       4       3       4       4       3       4       4       3       4       4
       3       4       4       3       4       4       3       4       4       3
       4       4       3       4       4       3       4       4       3       4
       4       3       4       4       3       4       4       3       4       4
       3       4       4       3       4       4       3       4       4       3
       4       4       3       4       4       3       4       4       3       4
       4       3       4       4       3       4       4       3       4       4
       3       4       4       3       4       4       3       4       4       3
       4       4       3       4       4       3       4       4       3       4
       4       3       4       4       3       4       4       3       4       4
       3       4       4       3       4       4       3       4       4       3
       4       4       3       4       4       3       4       4       3       4
       4       3       4       4       3       4       4       3       4       4
       3       4       4       3       4       4       3       4       4       3
       4       4       3       4       4       3       4       4       3       4
       4       3       4       4       3       4       4       3       4       4
       3       4       4       3       4       4       3       4       4       3
       4       4       3       4       4       3       4       4       3       4
       4       3       4       4       3       4       4       3       4       4
       3       4       4       3       4       4       3       4       4       3
       4       4       3       4       4       3       4       4       3       4
       4       3       4       4       3       4       4       3       4       4
       3       4       4       3       4       4       3       4       4       3
       4       4       3       4       4       3       4       4       3       4
       4       3       4       4       3       4       4       3       4       4
       3       4       4       3       4       4       3       4       4       3
       4       4       3       4       4       3       4       4       3       4
       4       3       4       4       3       4       4       3       4       4
       3       4       4       3       4       4       3       4       4       3
       4       4       3       4       4       3       4       4       3       4
       4       3       4       4       3       4       4       3       4       4
       3       4       4       3       4       4       3       4       4       3
       4       4       3       4       4       3       4       4       3       4
       4       3       4       4       3       4       4       3       4       4
       3       4       4       3       4       4       3       4       4       3
       4       4       3       4       4       3       4       4       3       4
       4       3       4       4       3       4       4       3       4       4
       3       4       4       3       4       4       3       4       4       3
       4       4       3       4       4       3       4       4       3       4
       4       3       4       4       3       4       4       3       4       4
       3       4       4       3       4       4       3       4       4       3
       4       4       3       4       4       3       4       4       3       4
       4       3       4       4       3       4       4       3       4       4
       3       4       4       3       4       4       3       4       4       3
       4       4       3       4       4       3       4       4       3       4
       4       3       4       4       3       4       4       3       4       4
       3       4       4       3       4       4       3       4       4       3
       4       4       3       4       4       3       4       4       3       4
       4       3       4       4       3       4       4       3       4       4
       3       4       4       3       4       4       3       4       4       3
       4       4       3       4       4       3       4       4       3       4
       4       3       4       4       3       4       4       3       4       4
       3       4       4       3       4       4       3       4       4       3
       4       4       3       4       4       3       4       4       3       4
       4       3       4       4       3       4       4       3       4       4
       3       4       4       3       4       4       3       4       4       3
       4       4       3       4       4       3       4       4       3       4
       4       3       4       4       3       4       4       3       4       4
       3       4       4       3       4       4       3       4       4       3
       4       4       3       4       4       3       4       4       3       4
       4       3       4       4       3       4       4       3       4       4
       3       4       4       3       4       4       3       4       4       3
       4       4       3       4       4       3       4       4       3       4
       4       3       4       4       3       4       4       3       4       4
       3       4       4       3       4       4       3       4       4       3
       4       4       3       4       4       3       4       4       3       4
       4       3       4       4       3       4       4       3       4       4
       3       4       4       3       4       4       3       4       4       3
       4       4       3       4       4       3       4       4       3       4
       4       3       4       4       3       4       4       3       4       4
       3       4       4       3       4       4       3       4       4       3
       4       4       3       4       4       3       4       4       3       4
       4       3       4       4       3       4       4       3       4       4
       3       4       4       3       4       4       3       4       4       3
       4       4       3       4       4       3       4       4       3       4
       4       3       4       4       3       4       4       3       4       4
       3       4       4       3       4       4       3       4       4       3
       4       4       3       4       4       3       4       4       3       4
       4       3       4       4       3       4       4       3       4       4
       3       4       4       3       4       4       3       4       4       3
       4       4       3       4       4       3       4       4       3       4
       4       3       4       4       3       4       4       3       4       4
       3       4       4       3       4       4       3       4       4       3
       4       4       3       4       4       3       4       4       3       4
       4       3       4       4       3       4       4       3       4       4
       3       4       4       3       4       4       3       4       4       3
       4       4       3       4       4       3       4       4       3       4
       4       3       4       4       3       4       4       3       4       4
       3       4       4       3       4       4       3       4       4       3
       4       4       3       4       4       3       4       4       3       4
       4       3       4       4       3       4       4       3       4       4
       3       4       4       3       4       4       3       4       4       3
       4       4       3       4       4       3       4       4       3       4
       4       3       4       4       3       4       4       3       4       4
       3       4       4       3       4       4       3       4       4       3
       4       4       3       4       4       3       4       4       3       4
       4       3       4       4       3       4       4       3       4       4
       3       4       4       3       4       4       3       4       4       3
       4       4       3       4       4       3       4       4       3       4
       4       3       4       4       3       4       4       3       4       4
       3       4       4       3       4       4       3       4       4       3
       4       4       3       4       4       3       4       4       3       4
       4       3       4       4       3       4       4       3       4       4
       3       4       4       3       4       4       3       4       4       3
       4       4       3       4       4       3       4       4       3       4
       4       3       4       4       3       4       4       3       4       4
       3       4       4       3       4       4       3       4       4       3
       4       4       3       4       4       3       4       4       3       4
       4       3       4       4       3       4       4       3       4       4
       3       4       4       3       4       4       3       4       4       3
       4       4       3       4       4       3       4       4       3       4
       4       3       4       4       3       4       4       3       4       4
       3       4       4       3       4       4       3       4       4       3
       4       4       3       4       4       3       4       4       3       4
       4       3       4       4       3       4       4       3       4       4
       3       4       4       3       4       4       3       4       4       3
       4       4       3       4       4       3       4       4       3       4
       4       3       4       4       3       4       4       3       4       4
       3       4       4       3       4       4       3       4       4       3
       4       4       3       4       4       3       4       4       3       4
       4       3       4       4
%FLAG NUMBER_EXCLUDED_ATOMS                                                     
%FORMAT(10I8)                                                                   
       1       1       1       1       1       1       1       1       2       1
       1       2       1       1       2       1       1       2       1       1
       2       1       1       2       1       1       2       1       1       2
       1       1       2       1       1       2       1       1       2       1
       1       2       1       1       2       1       1       2       1       1
       2       1       1       2       1       1       2       1       1       2
       1       1       2       1       1       2       1       1       2       1
       1       2       1       1       2       1       1       2       1       1
       2       1       1       2       1       1       2       1       1       2
       1       1       2       1       1       2       1       1       2       1
       1       2       1       1       2       1       1       2       1       1
       2       1       1       2       1       1       2       1       1       2
       1       1       2       1       1       2       1       1       2       1
       1       2       1       1       2       1       1       2       1       1
       2       1       1       2       1       1       2       1       1       2
       1       1       2       1       1       2       1       1       2       1
       1       2       1       1       2       1       1       2       1       1
       2       1       1       2       1       1       2       1       1       2
       1       1       2       1       1       2       1       1       2       1
       1       2       1       1       2       1       1       2       1       1
       2       1       1       2       1       1       2       1       1       2
       1       1       2       1       1       2       1       1       2       1
       1       2       1       1       2       1       1       2       1       1
       2       1       1       2       1       1       2       1       1       2
       1       1       2       1       1       2       1       1       2       1
       1       2       1       1       2       1       1       2       1       1
       2       1       1       2       1       1       2       1       1       2
       1       1       2       1       1       2       1       1       2       1
       1       2       1       1       2       1       1       2       1       1
       2       1       1       2       1       1       2       1       1       2
       1       1       2       1       1       2       1       1       2       1
       1       2       1       1       2       1       1       2       1       1
       2       1       1       2       1       1       2       1       1       2
       1       1       2       1       1       2       1       1       2       1
       1       2       1       1       2       1       1       2       1       1
       2       1       1       2       1       1       2       1       1       2
       1       1       2       1       1       2       1       1       2       1
       1       2       1       1       2       1       1       2       1       1
       2       1       1       2       1       1       2       1       1       2
       1       1       2       1       1       2       1       1       2       1
       1       2       1       1       2       1       1       2       1       1
       2       1       1       2       1       1       2       1       1       2
       1       1       2       1       1       2       1       1       2       1
       1       2       1       1       2       1       1       2       1       1
       2       1       1       2       1       1       2       1       1       2
       1       1       2       1       1       2       1       1       2       1
       1       2       1       1       2       1       1       2       1       1
       2       1       1       2       1       1       2       1       1       2
       1       1       2       1       1       2       1       1       2       1
       1       2       1       1       2       1       1       2       1       1
       2       1       1       2       1       1       2       1       1       2
       1       1       2       1       1       2       1       1       2       1
       1       2       1       1       2       1       1       2       1       1
       2       1       1       2       1       1       2       1       1       2
       1       1       2       1       1       2       1       1       2       1
       1       2       1       1       2       1       1       2       1       1
       2       1       1       2       1       1       2       1       1       2
       1       1       2       1       1       2       1       1       2       1
       1       2       1       1       2       1       1       2       1       1
       2       1       1       2       1       1       2       1       1       2
       1       1       2       1       1       2       1       1       2       1
       1       2       1       1       2       1       1       2       1       1
       2       1       1       2       1       1       2       1       1       2
       1       1       2       1       1       2       1       1       2       1
       1       2       1       1       2       1       1       2       1       1
       2       1       1       2       1       1       2       1       1       2
       1       1       2       1       1       2       1       1       2       1
       1       2       1       1       2       1       1       2       1       1
       2       1       1       2       1       1       2       1       1       2
       1       1       2       1       1       2       1       1       2       1
       1       2       1       1       2       1       1       2       1       1
       2       1       1       2       1       1       2       1       1       2
       1       1       2       1       1       2       1       1       2       1
       1       2       1       1       2       1       1       2       1       1
       2       1       1       2       1       1       2       1       1       2
       1       1       2       1       1       2       1       1       2       1
       1       2       1       1       2       1       1       2       1       1
       2       1       1       2       1       1       2       1       1       2
       1       1       2       1       1       2       1       1       2       1
       1       2       1       1       2       1       1       2       1       1
       2       1       1       2       1       1       2       1       1       2
       1       1       2       1       1       2       1       1       2       1
       1       2       1       1       2       1       1       2       1       1
       2       1       1       2       1       1       2       1       1       2
       1       1       2       1       1       2       1       1       2       1
       1       2       1       1       2       1       1       2       1       1
       2       1       1       2       1       1       2       1       1       2
       1       1       2       1       1       2       1       1       2       1
       1       2       1       1       2       1       1       2       1       1
       2       1       1       2       1       1       2       1       1       2
       1       1       2       1       1       2       1       1       2       1
       1       2       1       1       2       1       1       2       1       1
       2       1       1       2       1       1       2       1       1       2
       1       1       2       1       1       2       1       1       2       1
       1       2       1       1       2       1       1       2       1       1
       2       1       1       2       1       1       2       1       1       2
       1       1       2       1       1       2       1       1       2       1
       1       2       1       1       2       1       1       2       1       1
       2       1       1       2       1       1       2       1       1       2
       1       1       2       1       1       2       1       1       2       1
       1       2       1       1       2       1       1       2       1       1
       2       1       1       2       1       1       2       1       1       2
       1       1       2       1       1       2       1       1       2       1
       1       2       1       1       2       1       1       2       1       1
       2       1       1       2       1       1       2       1       1       2
       1       1       2       1       1       2       1       1       2       1
       1       2       1       1       2       1       1       2       1       1
       2       1       1       2       1       1       2       1       1       2
       1       1       2       1       1       2       1       1       2       1
       1       2       1       1       2       1       1       2       1       1
       2       1       1       2       1       1       2       1       1       2
       1       1       2       1       1       2       1       1       2       1
       1       2       1       1       2       1       1       2       1       1
       2       1       1       2       1       1       2       1       1       2
       1       1       2       1       1       2       1       1       2       1
       1       2       1       1       2       1       1       2       1       1
       2       1       1       2       1       1       2       1       1       2
       1       1       2       1       1       2       1       1       2       1
       1       2       1       1       2       1       1       2       1       1
       2       1       1       2       1       1       2       1       1       2
       1       1       2       1       1       2       1       1       2       1
       1       2       1       1       2       1       1       2       1       1
       2       1       1       2       1       1       2       1       1       2
       1       1       2       1       1       2       1       1       2       1
       1       2       1       1       2       1       1       2       1       1
       2       1       1       2       1       1       2       1       1       2
       1       1       2       1       1       2       1       1       2       1
       1       2       1       1       2       1       1       2       1       1
       2       1       1       2       1       1       2       1       1       2
       1       1       2       1       1       2       1       1       2       1
       1       2       1       1       2       1       1       2       1       1
       2       1       1       2       1       1       2       1       1       2
       1       1       2       1       1       2       1       1       2       1
       1       2       1       1       2       1       1       2       1       1
       2       1       1       2       1       1       2       1       1       2
       1       1       2       1       1       2       1       1       2       1
       1       2       1       1       2       1       1       2       1       1
       2       1       1       2       1       1       2       1       1       2
       1       1       2       1       1       2       1       1       2       1
       1       2       1       1       2       1       1       2       1       1
       2       1       1       2       1       1       2       1       1       2
       1       1       2       1       1       2       1       1       2       1
       1       2       1       1       2       1       1       2       1       1
       2       1       1       2       1       1       2       1       1       2
       1       1       2       1       1       2       1       1       2       1
       1       2       1       1       2       1       1       2       1       1
       2       1       1       2       1       1       2       1       1       2
       1       1       2       1       1       2       1       1       2       1
       1       2       1       1       2       1       1       2       1       1
       2       1       1       2       1       1       2       1       1       2
       1       1       2       1       1       2       1       1       2       1
       1       2       1       1       2       1       1       2       1       1
       2       1       1       2       1       1       2       1       1       2
       1       1       2       1       1       2       1       1       2       1
       1       2       1       1       2       1       1       2       1       1
       2       1       1       2       1       1       2       1       1       2
       1       1       2       1       1       2       1       1       2       1
       1       2       1       1       2       1       1       2       1       1
       2       1       1       2       1       1       2       1       1       2
       1       1       2       1       1       2       1       1       2       1
       1       2       1       1       2       1       1       2       1       1
       2       1       1       2       1       1       2       1       1       2
       1       1       2       1       1       2       1       1       2       1
       1       2       1       1       2       1       1       2       1       1
       2       1       1       2       1       1       2       1       1       2
       1       1       2       1       1       2       1       1       2       1
       1       2       1       1       2       1       1       2       1       1
       2       1       1       2       1       1       2       1       1       2
       1       1       2       1       1       2       1       1       2       1
       1       2       1       1       2       1       1       2       1       1
       2       1       1       2       1       1       2       1       1       2
       1       1       2       1       1       2       1       1       2       1
       1       2       1       1       2       1       1       2       1       1
       2       1       1       2       1       1       2       1       1       2
       1       1       2       1       1       2       1       1       2       1
       1       2       1       1       2       1       1       2       1       1
       2       1       1       2       1       1       2       1       1       2
       1       1       2       1       1       2       1       1       2       1
       1       2       1       1       2       1       1       2       1       1
       2       1       1       2       1       1       2       1       1       2
       1       1       2       1       1       2       1       1       2       1
       1       2       1       1       2       1       1       2       1       1
       2       1       1       2       1       1       2       1       1       2
       1       1       2       1       1       2       1       1       2       1
       1       2       1       1
%FLAG NONBONDED_PARM_INDEX                                                      
%FORMAT(10I8)                                                                   
       1       2       4       7       2       3       5       8       4       5
       6       9       7       8       9      10
%FLAG RESIDUE_LABEL                                                             
%FORMAT(20a4)                                                                   
Na+ Na+ Na+ Na+ Cl- Cl- Cl- Cl- WAT WAT WAT WAT WAT WAT WAT WAT WAT WAT WAT WAT 
WAT WAT WAT WAT WAT WAT WAT WAT WAT WAT WAT WAT WAT WAT WAT WAT WAT WAT WAT WAT 
WAT WAT WAT WAT WAT WAT WAT WAT WAT WAT WAT WAT WAT WAT WAT WAT WAT WAT WAT WAT 
WAT WAT WAT WAT WAT WAT WAT WAT WAT WAT WAT WAT WAT WAT WAT WAT WAT WAT WAT WAT 
WAT WAT WAT WAT WAT WAT WAT WAT WAT WAT WAT WAT WAT WAT WAT WAT WAT WAT WAT WAT 
WAT WAT WAT WAT WAT WAT WAT WAT WAT WAT WAT WAT WAT WAT WAT WAT WAT WAT WAT WAT 
WAT WAT WAT WAT WAT WAT WAT WAT WAT WAT WAT WAT WAT WAT WAT WAT WAT WAT WAT WAT 
WAT WAT WAT WAT WAT WAT WAT WAT WAT WAT WAT WAT WAT WAT WAT WAT WAT WAT WAT WAT 
WAT WAT WAT WAT WAT WAT WAT WAT WAT WAT WAT WAT WAT WAT WAT WAT WAT WAT WAT WAT 
WAT WAT WAT WAT WAT WAT WAT WAT WAT WAT WAT WAT WAT WAT WAT WAT WAT WAT WAT WAT 
WAT WAT WAT WAT WAT WAT WAT WAT WAT WAT WAT WAT WAT WAT WAT WAT WAT WAT WAT WAT 
WAT WAT WAT WAT WAT WAT WAT WAT WAT WAT WAT WAT WAT WAT WAT WAT WAT WAT WAT WAT 
WAT WAT WAT WAT WAT WAT WAT WAT WAT WAT WAT WAT WAT WAT WAT WAT WAT WAT WAT WAT 
WAT WAT WAT WAT WAT WAT WAT WAT WAT WAT WAT WAT WAT WAT WAT WAT WAT WAT WAT WAT 
WAT WAT WAT WAT WAT WAT WAT WAT WAT WAT WAT WAT WAT WAT WAT WAT WAT WAT WAT WAT 
WAT WAT WAT WAT WAT WAT WAT WAT WAT WAT WAT WAT WAT WAT WAT WAT WAT WAT WAT WAT 
WAT WAT WAT WAT WAT WAT WAT WAT WAT WAT WAT WAT WAT WAT WAT WAT WAT WAT WAT WAT 
WAT WAT WAT WAT WAT WAT WAT WAT WAT WAT WAT WAT WAT WAT WAT WAT WAT WAT WAT WAT 
WAT WAT WAT WAT WAT WAT WAT WAT WAT WAT WAT WAT WAT WAT WAT WAT WAT WAT WAT WAT 
WAT WAT WAT WAT WAT WAT WAT WAT WAT WAT WAT WAT WAT WAT WAT WAT WAT WAT WAT WAT 
WAT WAT WAT WAT WAT WAT WAT WAT WAT WAT WAT WAT WAT WAT WAT WAT WAT WAT WAT WAT 
WAT WAT WAT WAT WAT WAT WAT WAT WAT WAT WAT WAT WAT WAT WAT WAT WAT WAT WAT WAT 
WAT WAT WAT WAT WAT WAT WAT WAT WAT WAT WAT WAT WAT WAT WAT WAT WAT WAT WAT WAT 
WAT WAT WAT WAT WAT WAT WAT WAT WAT WAT WAT WAT WAT WAT WAT WAT WAT WAT WAT WAT 
WAT WAT WAT WAT WAT WAT WAT WAT WAT WAT WAT WAT WAT WAT WAT WAT WAT WAT WAT WAT 
WAT WAT WAT WAT WAT WAT WAT WAT WAT WAT WAT WAT WAT WAT WAT WAT WAT WAT WAT WAT 
WAT WAT WAT WAT WAT WAT WAT WAT WAT WAT WAT WAT WAT WAT WAT WAT WAT WAT WAT WAT 
WAT WAT WAT WAT WAT WAT WAT WAT WAT WAT WAT WAT WAT WAT WAT WAT WAT WAT WAT WAT 
WAT WAT WAT WAT WAT WAT WAT WAT WAT WAT WAT WAT WAT WAT WAT WAT WAT WAT WAT WAT 
WAT WAT WAT WAT WAT WAT WAT WAT WAT WAT WAT WAT WAT WAT WAT WAT WAT WAT WAT WAT 
WAT WAT WAT WAT WAT WAT WAT WAT WAT WAT WAT WAT WAT WAT WAT WAT WAT WAT WAT WAT 
%FLAG RESIDUE_POINTER                                                           
%FORMAT(10I8)                                                                   
       1       2       3       4       5       6       7       8       9      12
      15      18      21      24      27      30      33      36      39      42
      45      48      51      54      57      60      63      66      69      72
      75      78      81      84      87      90      93      96      99     102
     105     108     111     114     117     120     123     126     129     132
     135     138     141     144     147     150     153     156     159     162
     165     168     171     174     177     180     183     186     189     192
     195     198     201     204     207     210     213     216     219     222
     225     228     231     234     237     240     243     246     249     252
     255     258     261     264     267     270     273     276     279     282
     285     288     291     294     297     300     303     306     309     312
     315     318     321     324     327     330     333     336     339     342
     345     348     351     354     357     360     363     366     369     372
     375     378     381     384     387     390     393     396     399     402
     405     408     411     414     417     420     423     426     429     432
     435     438     441     444     447     450     453     456     459     462
     465     468     471     474     477     480     483     486     489     492
     495     498     501     504     507     510     513     516     519     522
     525     528     531     534     537     540     543     546     549     552
     555     558     561     564     567     570     573     576     579     582
     585     588     591     594     597     600     603     606     609     612
     615     618     621     624     627     630     633     636     639     642
     645     648     651     654     657     660     663     666     669     672
     675     678     681     684     687     690     693     696     699     702
     705     708     711     714     717     720     723     726     729     732
     735     738     741     744     747     750     753     756     759     762
     765     768     771     774     777     780     783     786     789     792
     795     798     801     804     807     810     813     816     819     822
     825     828     831     834     837     840     843     846     849     852
     855     858     861     864     867     870     873     876     879     882
     885     888     891     894     897     900     903     906     909     912
     915     918     921     924     927     930     933     936     939     942
     945     948     951     954     957     960     963     966     969     972
     975     978     981     984     987     990     993     996     999    1002
    1005    1008    1011    1014    1017    1020    1023    1026    1029    1032
    1035    1038    1041    1044    1047    1050    1053    1056    1059    1062
    1065    1068    1071    1074    1077    1080    1083    1086    1089    1092
    1095    1098    1101    1104    1107    1110    1113    1116    1119    1122
    1125    1128    1131    1134    1137    1140    1143    1146    1149    1152
    1155    1158    1161    1164    1167    1170    1173    1176    1179    1182
    1185    1188    1191    1194    1197    1200    1203    1206    1209    1212
    1215    1218    1221    1224    1227    1230    1233    1236    1239    1242
    1245    1248    1251    1254    1257    1260    1263    1266    1269    1272
    1275    1278    1281    1284    1287    1290    1293    1296    1299    1302
    1305    1308    1311    1314    1317    1320    1323    1326    1329    1332
    1335    1338    1341    1344    1347    1350    1353    1356    1359    1362
    1365    1368    1371    1374    1377    1380    1383    1386    1389    1392
    1395    1398    1401    1404    1407    1410    1413    1416    1419    1422
    1425    1428    1431    1434    1437    1440    1443    1446    1449    1452
    1455    1458    1461    1464    1467    1470    1473    1476    1479    1482
    1485    1488    1491    1494    1497    1500    1503    1506    1509    1512
    1515    1518    1521    1524    1527    1530    1533    1536    1539    1542
    1545    1548    1551    1554    1557    1560    1563    1566    1569    1572
    1575    1578    1581    1584    1587    1590    1593    1596    1599    1602
    1605    1608    1611    1614    1617    1620    1623    1626    1629    1632
    1635    1638    1641    1644    1647    1650    1653    1656    1659    1662
    1665    1668    1671    1674    1677    1680    1683    1686    1689    1692
    1695    1698    1701    1704    1707    1710    1713    1716    1719    1722
    1725    1728    1731    1734    1737    1740    1743    1746    1749    1752
    1755    1758    1761    1764    1767    1770    1773    1776    1779    1782
    1785    1788    1791    1794    1797    1800    1803    1806    1809    1812
    1815    1818    1821    1824    1827    1830    1833    1836    1839    1842
%FLAG BOND_FORCE_CONSTANT                                                       
%FORMAT(5E16.8)                                                                 
  5.53000000E+02  5.53000000E+02
%FLAG BOND_EQUIL_VALUE                                                          
%FORMAT(5E16.8)                                                                 
  1.53206000E+00  9.74500000E-01
%FLAG ANGLE_FORCE_CONSTANT                                                      
%FORMAT(5E16.8)                                                                 

%FLAG ANGLE_EQUIL_VALUE                                                         
%FORMAT(5E16.8)                                                                 

%FLAG DIHEDRAL_FORCE_CONSTANT                                                   
%FORMAT(5E16.8)                                                                 

%FLAG DIHEDRAL_PERIODICITY                                                      
%FORMAT(5E16.8)                                                                 

%FLAG DIHEDRAL_PHASE                                                            
%FORMAT(5E16.8)                                                                 

%FLAG SCEE_SCALE_FACTOR                                                         
%FORMAT(5E16.8)                                                                 

%FLAG SCNB_SCALE_FACTOR                                                         
%FORMAT(5E16.8)                                                                 

%FLAG SOLTY                                                                     
%FORMAT(5E16.8)                                                                 
  0.00000000E+00  0.00000000E+00  0.00000000E+00  0.00000000E+00
%FLAG LENNARD_JONES_ACOEF                                                       
%FORMAT(5E16.8)                                                                 
  2.04815198E+04  2.58323082E+05  3.24095688E+06  1.07012778E+05  1.35903738E+06
  5.54102198E+05  0.00000000E+00  0.00000000E+00  0.00000000E+00  0.00000000E+00
%FLAG LENNARD_JONES_BCOEF                                                       
%FORMAT(5E16.8)                                                                 
  1.50643699E+01  1.67318134E+02  1.85348706E+03  9.25779153E+01  1.03180305E+03
  5.66375180E+02  0.00000000E+00  0.00000000E+00  0.00000000E+00  0.00000000E+00
%FLAG BONDS_INC_HYDROGEN                                                        
%FORMAT(10I8)                                                                   
      27      30       1      24      27       2      24      30       2      36
      33       2      39      33       2      39      36       1      45      42
       2      48      42       2      48      45       1      54      51       2
      57      51       2      57      54       1      63      60       2      66
      60       2      66      63       1      72      69       2      75      69
       2      75      72       1      81      78       2      84      78       2
      84      81       1      90      87       2      93      87       2      93
      90       1      99      96       2     102      96       2     102      99
       1     108     105       2     111     105       2     111     108       1
     117     114       2     120     114       2     120     117       1     126
     123       2     129     123       2     129     126       1     135     132
       2     138     132       2     138     135       1     144     141       2
     147     141       2     147     144       1     153     150       2     156
     150       2     156     153       1     162     159       2     165     159
       2     165     162       1     171     168       2     174     168       2
     174     171       1     180     177       2     183     177       2     183
     180       1     189     186       2     192     186       2     192     189
       1     198     195       2     201     195       2     201     198       1
     207     204       2     210     204       2     210     207       1     216
     213       2     219     213       2     219     216       1     225     222
       2     228     222       2     228     225       1     234     231       2
     237     231       2     237     234       1     243     240       2     246
     240       2     246     243       1     252     249       2     255     249
       2     255     252       1     261     258       2     264     258       2
     264     261       1     270     267       2     273     267       2     273
     270       1     279     276       2     282     276       2     282     279
       1     288     285       2     291     285       2     291     288       1
     297     294       2     300     294       2     300     297       1     306
     303       2     309     303       2     309     306       1     315     312
       2     318     312       2     318     315       1     324     321       2
     327     321       2     327     324       1     333     330       2     336
     330       2     336     333       1     342     339       2     345     339
       2     345     342       1     351     348       2     354     348       2
     354     351       1     360     357       2     363     357       2     363
     360       1     369     366       2     372     366       2     372     369
       1     378     375       2     381     375       2     381     378       1
     387     384       2     390     384       2     390     387       1     396
     393       2     399     393       2     399     396       1     405     402
       2     408     402       2     408     405       1     414     411       2
     417     411       2     417     414       1     423     420       2     426
     420       2     426     423       1     432     429       2     435     429
       2     435     432       1     441     438       2     444     438       2
     444     441       1     450     447       2     453     447       2     453
     450       1     459     456       2     462     456       2     462     459
       1     468     465       2     471     465       2     471     468       1
     477     474       2     480     474       2     480     477       1     486
     483       2     489     483       2     489     486       1     495     492
       2     498     492       2     498     495       1     504     501       2
     507     501       2     507     504       1     513     510       2     516
     510       2     516     513       1     522     519       2     525     519
       2     525     522       1     531     528       2     534     528       2
     534     531       1     540     537       2     543     537       2     543
     540       1     549     546       2     552     546       2     552     549
       1     558     555       2     561     555       2     561     558       1
     567     564       2     570     564       2     570     567       1     576
     573       2     579     573       2     579     576       1     585     582
       2     588     582       2     588     585       1     594     591       2
     597     591       2     597     594       1     603     600       2     606
     600       2     606     603       1     612     609       2     615     609
       2     615     612       1     621     618       2     624     618       2
     624     621       1     630     627       2     633     627       2     633
     630       1     639     636       2     642     636       2     642     639
       1     648     645       2     651     645       2     651     648       1
     657     654       2     660     654       2     660     657       1     666
     663       2     669     663       2     669     666       1     675     672
       2     678     672       2     678     675       1     684     681       2
     687     681       2     687     684       1     693     690       2     696
     690       2     696     693       1     702     699       2     705     699
       2     705     702       1     711     708       2     714     708       2
     714     711       1     720     717       2     723     717       2     723
     720       1     729     726       2     732     726       2     732     729
       1     738     735       2     741     735       2     741     738       1
     747     744       2     750     744       2     750     747       1     756
     753       2     759     753       2     759     756       1     765     762
       2     768     762       2     768     765       1     774     771       2
     777     771       2     777     774       1     783     780       2     786
     780       2     786     783       1     792     789       2     795     789
       2     795     792       1     801     798       2     804     798       2
     804     801       1     810     807       2     813     807       2     813
     810       1     819     816       2     822     816       2     822     819
       1     828     825       2     831     825       2     831     828       1
     837     834       2     840     834       2     840     837       1     846
     843       2     849     843       2     849     846       1     855     852
       2     858     852       2     858     855       1     864     861       2
     867     861       2     867     864       1     873     870       2     876
     870       2     876     873       1     882     879       2     885     879
       2     885     882       1     891     888       2     894     888       2
     894     891       1     900     897       2     903     897       2     903
     900       1     909     906       2     912     906       2     912     909
       1     918     915       2     921     915       2     921     918       1
     927     924       2     930     924       2     930     927       1     936
     933       2     939     933       2     939     936       1     945     942
       2     948     942       2     948     945       1     954     951       2
     957     951       2     957     954       1     963     960       2     966
     960       2     966     963       1     972     969       2     975     969
       2     975     972       1     981     978       2     984     978       2
     984     981       1     990     987       2     993     987       2     993
     990       1     999     996       2    1002     996       2    1002     999
       1    1008    1005       2    1011    1005       2    1011    1008       1
    1017    1014       2    1020    1014       2    1020    1017       1    1026
    1023       2    1029    1023       2    1029    1026       1    1035    1032
       2    1038    1032       2    1038    1035       1    1044    1041       2
    1047    1041       2    1047    1044       1    1053    1050       2    1056
    1050       2    1056    1053       1    1062    1059       2    1065    1059
       2    1065    1062       1    1071    1068       2    1074    1068       2
    1074    1071       1    1080    1077       2    1083    1077       2    1083
    1080       1    1089    1086       2    1092    1086       2    1092    1089
       1    1098    1095       2    1101    1095       2    1101    1098       1
    1107    1104       2    1110    1104       2    1110    1107       1    1116
    1113       2    1119    1113       2    1119    1116       1    1125    1122
       2    1128    1122       2    1128    1125       1    1134    1131       2
    1137    1131       2    1137    1134       1    1143    1140       2    1146
    1140       2    1146    1143       1    1152    1149       2    1155    1149
       2    1155    1152       1    1161    1158       2    1164    1158       2
    1164    1161       1    1170    1167       2    1173    1167       2    1173
    1170       1    1179    1176       2    1182    1176       2    1182    1179
       1    1188    1185       2    1191    1185       2    1191    1188       1
    1197    1194       2    1200    1194       2    1200    1197       1    1206
    1203       2    1209    1203       2    1209    1206       1    1215    1212
       2    1218    1212       2    1218    1215       1    1224    1221       2
    1227    1221       2    1227    1224       1    1233    1230       2    1236
    1230       2    1236    1233       1    1242    1239       2    1245    1239
       2    1245    1242       1    1251    1248       2    1254    1248       2
    1254    1251       1    1260    1257       2    1263    1257       2    1263
    1260       1    1269    1266       2    1272    1266       2    1272    1269
       1    1278    1275       2    1281    1275       2    1281    1278       1
    1287    1284       2    1290    1284       2    1290    1287       1    1296
    1293       2    1299    1293       2    1299    1296       1    1305    1302
       2    1308    1302       2    1308    1305       1    1314    1311       2
    1317    1311       2    1317    1314       1    1323    1320       2    1326
    1320       2    1326    1323       1    1332    1329       2    1335    1329
       2    1335    1332       1    1341    1338       2    1344    1338       2
    1344    1341       1    1350    1347       2    1353    1347       2    1353
    1350       1    1359    1356       2    1362    1356       2    1362    1359
       1    1368    1365       2    1371    1365       2    1371    1368       1
    1377    1374       2    1380    1374       2    1380    1377       1    1386
    1383       2    1389    1383       2    1389    1386       1    1395    1392
       2    1398    1392       2    1398    1395       1    1404    1401       2
    1407    1401       2    1407    1404       1    1413    1410       2    1416
    1410       2    1416    1413       1    1422    1419       2    1425    1419
       2    1425    1422       1    1431    1428       2    1434    1428       2
    1434    1431       1    1440    1437       2    1443    1437       2    1443
    1440       1    1449    1446       2    1452    1446       2    1452    1449
       1    1458    1455       2    1461    1455       2    1461    1458       1
    1467    1464       2    1470    1464       2    1470    1467       1    1476
    1473       2    1479    1473       2    1479    1476       1    1485    1482
       2    1488    1482       2    1488    1485       1    1494    1491       2
    1497    1491       2    1497    1494       1    1503    1500       2    1506
    1500       2    1506    1503       1    1512    1509       2    1515    1509
       2    1515    1512       1    1521    1518       2    1524    1518       2
    1524    1521       1    1530    1527       2    1533    1527       2    1533
    1530       1    1539    1536       2    1542    1536       2    1542    1539
       1    1548    1545       2    1551    1545       2    1551    1548       1
    1557    1554       2    1560    1554       2    1560    1557       1    1566
    1563       2    1569    1563       2    1569    1566       1    1575    1572
       2    1578    1572       2    1578    1575       1    1584    1581       2
    1587    1581       2    1587    1584       1    1593    1590       2    1596
    1590       2    1596    1593       1    1602    1599       2    1605    1599
       2    1605    1602       1    1611    1608       2    1614    1608       2
    1614    1611       1    1620    1617       2    1623    1617       2    1623
    1620       1    1629    1626       2    1632    1626       2    1632    1629
       1    1638    1635       2    1641    1635       2    1641    1638       1
    1647    1644       2    1650    1644       2    1650    1647       1    1656
    1653       2    1659    1653       2    1659    1656       1    1665    1662
       2    1668    1662       2    1668    1665       1    1674    1671       2
    1677    1671       2    1677    1674       1    1683    1680       2    1686
    1680       2    1686    1683       1    1692    1689       2    1695    1689
       2    1695    1692       1    1701    1698       2    1704    1698       2
    1704    1701       1    1710    1707       2    1713    1707       2    1713
    1710       1    1719    1716       2    1722    1716       2    1722    1719
       1    1728    1725       2    1731    1725       2    1731    1728       1
    1737    1734       2    1740    1734       2    1740    1737       1    1746
    1743       2    1749    1743       2    1749    1746       1    1755    1752
       2    1758    1752       2    1758    1755       1    1764    1761       2
    1767    1761       2    1767    1764       1    1773    1770       2    1776
    1770       2    1776    1773       1    1782    1779       2    1785    1779
       2    1785    1782       1    1791    1788       2    1794    1788       2
    1794    1791       1    1800    1797       2    1803    1797       2    1803
    1800       1    1809    1806       2    1812    1806       2    1812    1809
       1    1818    1815       2    1821    1815       2    1821    1818       1
    1827    1824       2    1830    1824       2    1830    1827       1    1836
    1833       2    1839    1833       2    1839    1836       1    1845    1842
       2    1848    1842       2    1848    1845       1    1854    1851       2
    1857    1851       2    1857    1854       1    1863    1860       2    1866
    1860       2    1866    1863       1    1872    1869       2    1875    1869
       2    1875    1872       1    1881    1878       2    1884    1878       2
    1884    1881       1    1890    1887       2    1893    1887       2    1893
    1890       1    1899    1896       2    1902    1896       2    1902    1899
       1    1908    1905       2    1911    1905       2    1911    1908       1
    1917    1914       2    1920    1914       2    1920    1917       1    1926
    1923       2    1929    1923       2    1929    1926       1    1935    1932
       2    1938    1932       2    1938    1935       1    1944    1941       2
    1947    1941       2    1947    1944       1    1953    1950       2    1956
    1950       2    1956    1953       1    1962    1959       2    1965    1959
       2    1965    1962       1    1971    1968       2    1974    1968       2
    1974    1971       1    1980    1977       2    1983    1977       2    1983
    1980       1    1989    1986       2    1992    1986       2    1992    1989
       1    1998    1995       2    2001    1995       2    2001    1998       1
    2007    2004       2    2010    2004       2    2010    2007       1    2016
    2013       2    2019    2013       2    2019    2016       1    2025    2022
       2    2028    2022       2    2028    2025       1    2034    2031       2
    2037    2031       2    2037    2034       1    2043    2040       2    2046
    2040       2    2046    2043       1    2052    2049       2    2055    2049
       2    2055    2052       1    2061    2058       2    2064    2058       2
    2064    2061       1    2070    2067       2    2073    2067       2    2073
    2070       1    2079    2076       2    2082    2076       2    2082    2079
       1    2088    2085       2    2091    2085       2    2091    2088       1
    2097    2094       2    2100    2094       2    2100    2097       1    2106
    2103       2    2109    2103       2    2109    2106       1    2115    2112
       2    2118    2112       2    2118    2115       1    2124    2121       2
    2127    2121       2    2127    2124       1    2133    2130       2    2136
    2130       2    2136    2133       1    2142    2139       2    2145    2139
       2    2145    2142       1    2151    2148       2    2154    2148       2
    2154    2151       1    2160    2157       2    2163    2157       2    2163
    2160       1    2169    2166       2    2172    2166       2    2172    2169
       1    2178    2175       2    2181    2175       2    2181    2178       1
    2187    2184       2    2190    2184       2    2190    2187       1    2196
    2193       2    2199    2193       2    2199    2196       1    2205    2202
       2    2208    2202       2    2208    2205       1    2214    2211       2
    2217    2211       2    2217    2214       1    2223    2220       2    2226
    2220       2    2226    2223       1    2232    2229       2    2235    2229
       2    2235    2232       1    2241    2238       2    2244    2238       2
    2244    2241       1    2250    2247       2    2253    2247       2    2253
    2250       1    2259    2256       2    2262    2256       2    2262    2259
       1    2268    2265       2    2271    2265       2    2271    2268       1
    2277    2274       2    2280    2274       2    2280    2277       1    2286
    2283       2    2289    2283       2    2289    2286       1    2295    2292
       2    2298    2292       2    2298    2295       1    2304    2301       2
    2307    2301       2    2307    2304       1    2313    2310       2    2316
    2310       2    2316    2313       1    2322    2319       2    2325    2319
       2    2325    2322       1    2331    2328       2    2334    2328       2
    2334    2331       1    2340    2337       2    2343    2337       2    2343
    2340       1    2349    2346       2    2352    2346       2    2352    2349
       1    2358    2355       2    2361    2355       2    2361    2358       1
    2367    2364       2    2370    2364       2    2370    2367       1    2376
    2373       2    2379    2373       2    2379    2376       1    2385    2382
       2    2388    2382       2    2388    2385       1    2394    2391       2
    2397    2391       2    2397    2394       1    2403    2400       2    2406
    2400       2    2406    2403       1    2412    2409       2    2415    2409
       2    2415    2412       1    2421    2418       2    2424    2418       2
    2424    2421       1    2430    2427       2    2433    2427       2    2433
    2430       1    2439    2436       2    2442    2436       2    2442    2439
       1    2448    2445       2    2451    2445       2    2451    2448       1
    2457    2454       2    2460    2454       2    2460    2457       1    2466
    2463       2    2469    2463       2    2469    2466       1    2475    2472
       2    2478    2472       2    2478    2475       1    2484    2481       2
    2487    2481       2    2487    2484       1    2493    2490       2    2496
    2490       2    2496    2493       1    2502    2499       2    2505    2499
       2    2505    2502       1    2511    2508       2    2514    2508       2
    2514    2511       1    2520    2517       2    2523    2517       2    2523
    2520       1    2529    2526       2    2532    2526       2    2532    2529
       1    2538    2535       2    2541    2535       2    2541    2538       1
    2547    2544       2    2550    2544       2    2550    2547       1    2556
    2553       2    2559    2553       2    2559    2556       1    2565    2562
       2    2568    2562       2    2568    2565       1    2574    2571       2
    2577    2571       2    2577    2574       1    2583    2580       2    2586
    2580       2    2586    2583       1    2592    2589       2    2595    2589
       2    2595    2592       1    2601    2598       2    2604    2598       2
    2604    2601       1    2610    2607       2    2613    2607       2    2613
    2610       1    2619    2616       2    2622    2616       2    2622    2619
       1    2628    2625       2    2631    2625       2    2631    2628       1
    2637    2634       2    2640    2634       2    2640    2637       1    2646
    2643       2    2649    2643       2    2649    2646       1    2655    2652
       2    2658    2652       2    2658    2655       1    2664    2661       2
    2667    2661       2    2667    2664       1    2673    2670       2    2676
    2670       2    2676    2673       1    2682    2679       2    2685    2679
       2    2685    2682       1    2691    2688       2    2694    2688       2
    2694    2691       1    2700    2697       2    2703    2697       2    2703
    2700       1    2709    2706       2    2712    2706       2    2712    2709
       1    2718    2715       2    2721    2715       2    2721    2718       1
    2727    2724       2    2730    2724       2    2730    2727       1    2736
    2733       2    2739    2733       2    2739    2736       1    2745    2742
       2    2748    2742       2    2748    2745       1    2754    2751       2
    2757    2751       2    2757    2754       1    2763    2760       2    2766
    2760       2    2766    2763       1    2772    2769       2    2775    2769
       2    2775    2772       1    2781    2778       2    2784    2778       2
    2784    2781       1    2790    2787       2    2793    2787       2    2793
    2790       1    2799    2796       2    2802    2796       2    2802    2799
       1    2808    2805       2    2811    2805       2    2811    2808       1
    2817    2814       2    2820    2814       2    2820    2817       1    2826
    2823       2    2829    2823       2    2829    2826       1    2835    2832
       2    2838    2832       2    2838    2835       1    2844    2841       2
    2847    2841       2    2847    2844       1    2853    2850       2    2856
    2850       2    2856    2853       1    2862    2859       2    2865    2859
       2    2865    2862       1    2871    2868       2    2874    2868       2
    2874    2871       1    2880    2877       2    2883    2877       2    2883
    2880       1    2889    2886       2    2892    2886       2    2892    2889
       1    2898    2895       2    2901    2895       2    2901    2898       1
    2907    2904       2    2910    2904       2    2910    2907       1    2916
    2913       2    2919    2913       2    2919    2916       1    2925    2922
       2    2928    2922       2    2928    2925       1    2934    2931       2
    2937    2931       2    2937    2934       1    2943    2940       2    2946
    2940       2    2946    2943       1    2952    2949       2    2955    2949
       2    2955    2952       1    2961    2958       2    2964    2958       2
    2964    2961       1    2970    2967       2    2973    2967       2    2973
    2970       1    2979    2976       2    2982    2976       2    2982    2979
       1    2988    2985       2    2991    2985       2    2991    2988       1
    2997    2994       2    3000    2994       2    3000    2997       1    3006
    3003       2    3009    3003       2    3009    3006       1    3015    3012
       2    3018    3012       2    3018    3015       1    3024    3021       2
    3027    3021       2    3027    3024       1    3033    3030       2    3036
    3030       2    3036    3033       1    3042    3039       2    3045    3039
       2    3045    3042       1    3051    3048       2    3054    3048       2
    3054    3051       1    3060    3057       2    3063    3057       2    3063
    3060       1    3069    3066       2    3072    3066       2    3072    3069
       1    3078    3075       2    3081    3075       2    3081    3078       1
    3087    3084       2    3090    3084       2    3090    3087       1    3096
    3093       2    3099    3093       2    3099    3096       1    3105    3102
       2    3108    3102       2    3108    3105       1    3114    3111       2
    3117    3111       2    3117    3114       1    3123    3120       2    3126
    3120       2    3126    3123       1    3132    3129       2    3135    3129
       2    3135    3132       1    3141    3138       2    3144    3138       2
    3144    3141       1    3150    3147       2    3153    3147       2    3153
    3150       1    3159    3156       2    3162    3156       2    3162    3159
       1    3168    3165       2    3171    3165       2    3171    3168       1
    3177    3174       2    3180    3174       2    3180    3177       1    3186
    3183       2    3189    3183       2    3189    3186       1    3195    3192
       2    3198    3192       2    3198    3195       1    3204    3201       2
    3207    3201       2    3207    3204       1    3213    3210       2    3216
    3210       2    3216    3213       1    3222    3219       2    3225    3219
       2    3225    3222       1    3231    3228       2    3234    3228       2
    3234    3231       1    3240    3237       2    3243    3237       2    3243
    3240       1    3249    3246       2    3252    3246       2    3252    3249
       1    3258    3255       2    3261    3255       2    3261    3258       1
    3267    3264       2    3270    3264       2    3270    3267       1    3276
    3273       2    3279    3273       2    3279    3276       1    3285    3282
       2    3288    3282       2    3288    3285       1    3294    3291       2
    3297    3291       2    3297    3294       1    3303    3300       2    3306
    3300       2    3306    3303       1    3312    3309       2    3315    3309
       2    3315    3312       1    3321    3318       2    3324    3318       2
    3324    3321       1    3330    3327       2    3333    3327       2    3333
    3330       1    3339    3336       2    3342    3336       2    3342    3339
       1    3348    3345       2    3351    3345       2    3351    3348       1
    3357    3354       2    3360    3354       2    3360    3357       1    3366
    3363       2    3369    3363       2    3369    3366       1    3375    3372
       2    3378    3372       2    3378    3375       1    3384    3381       2
    3387    3381       2    3387    3384       1    3393    3390       2    3396
    3390       2    3396    3393       1    3402    3399       2    3405    3399
       2    3405    3402       1    3411    3408       2    3414    3408       2
    3414    3411       1    3420    3417       2    3423    3417       2    3423
    3420       1    3429    3426       2    3432    3426       2    3432    3429
       1    3438    3435       2    3441    3435       2    3441    3438       1
    3447    3444       2    3450    3444       2    3450    3447       1    3456
    3453       2    3459    3453       2    3459    3456       1    3465    3462
       2    3468    3462       2    3468    3465       1    3474    3471       2
    3477    3471       2    3477    3474       1    3483    3480       2    3486
    3480       2    3486    3483       1    3492    3489       2    3495    3489
       2    3495    3492       1    3501    3498       2    3504    3498       2
    3504    3501       1    3510    3507       2    3513    3507       2    3513
    3510       1    3519    3516       2    3522    3516       2    3522    3519
       1    3528    3525       2    3531    3525       2    3531    3528       1
    3537    3534       2    3540    3534       2    3540    3537       1    3546
    3543       2    3549    3543       2    3549    3546       1    3555    3552
       2    3558    3552       2    3558    3555       1    3564    3561       2
    3567    3561       2    3567    3564       1    3573    3570       2    3576
    3570       2    3576    3573       1    3582    3579       2    3585    3579
       2    3585    3582       1    3591    3588       2    3594    3588       2
    3594    3591       1    3600    3597       2    3603    3597       2    3603
    3600       1    3609    3606       2    3612    3606       2    3612    3609
       1    3618    3615       2    3621    3615       2    3621    3618       1
    3627    3624       2    3630    3624       2    3630    3627       1    3636
    3633       2    3639    3633       2    3639    3636       1    3645    3642
       2    3648    3642       2    3648    3645       1    3654    3651       2
    3657    3651       2    3657    3654       1    3663    3660       2    3666
    3660       2    3666    3663       1    3672    3669       2    3675    3669
       2    3675    3672       1    3681    3678       2    3684    3678       2
    3684    3681       1    3690    3687       2    3693    3687       2    3693
    3690       1    3699    3696       2    3702    3696       2    3702    3699
       1    3708    3705       2    3711    3705       2    3711    3708       1
    3717    3714       2    3720    3714       2    3720    3717       1    3726
    3723       2    3729    3723       2    3729    3726       1    3735    3732
       2    3738    3732       2    3738    3735       1    3744    3741       2
    3747    3741       2    3747    3744       1    3753    3750       2    3756
    3750       2    3756    3753       1    3762    3759       2    3765    3759
       2    3765    3762       1    3771    3768       2    3774    3768       2
    3774    3771       1    3780    3777       2    3783    3777       2    3783
    3780       1    3789    3786       2    3792    3786       2    3792    3789
       1    3798    3795       2    3801    3795       2    3801    3798       1
    3807    3804       2    3810    3804       2    3810    3807       1    3816
    3813       2    3819    3813       2    3819    3816       1    3825    3822
       2    3828    3822       2    3828    3825       1    3834    3831       2
    3837    3831       2    3837    3834       1    3843    3840       2    3846
    3840       2    3846    3843       1    3852    3849       2    3855    3849
       2    3855    3852       1    3861    3858       2    3864    3858       2
    3864    3861       1    3870    3867       2    3873    3867       2    3873
    3870       1    3879    3876       2    3882    3876       2    3882    3879
       1    3888    3885       2    3891    3885       2    3891    3888       1
    3897    3894       2    3900    3894       2    3900    3897       1    3906
    3903       2    3909    3903       2    3909    3906       1    3915    3912
       2    3918    3912       2    3918    3915       1    3924    3921       2
    3927    3921       2    3927    3924       1    3933    3930       2    3936
    3930       2    3936    3933       1    3942    3939       2    3945    3939
       2    3945    3942       1    3951    3948       2    3954    3948       2
    3954    3951       1    3960    3957       2    3963    3957       2    3963
    3960       1    3969    3966       2    3972    3966       2    3972    3969
       1    3978    3975       2    3981    3975       2    3981    3978       1
    3987    3984       2    3990    3984       2    3990    3987       1    3996
    3993       2    3999    3993       2    3999    3996       1    4005    4002
       2    4008    4002       2    4008    4005       1    4014    4011       2
    4017    4011       2    4017    4014       1    4023    4020       2    4026
    4020       2    4026    4023       1    4032    4029       2    4035    4029
       2    4035    4032       1    4041    4038       2    4044    4038       2
    4044    4041       1    4050    4047       2    4053    4047       2    4053
    4050       1    4059    4056       2    4062    4056       2    4062    4059
       1    4068    4065       2    4071    4065       2    4071    4068       1
    4077    4074       2    4080    4074       2    4080    4077       1    4086
    4083       2    4089    4083       2    4089    4086       1    4095    4092
       2    4098    4092       2    4098    4095       1    4104    4101       2
    4107    4101       2    4107    4104       1    4113    4110       2    4116
    4110       2    4116    4113       1    4122    4119       2    4125    4119
       2    4125    4122       1    4131    4128       2    4134    4128       2
    4134    4131       1    4140    4137       2    4143    4137       2    4143
    4140       1    4149    4146       2    4152    4146       2    4152    4149
       1    4158    4155       2    4161    4155       2    4161    4158       1
    4167    4164       2    4170    4164       2    4170    4167       1    4176
    4173       2    4179    4173       2    4179    4176       1    4185    4182
       2    4188    4182       2    4188    4185       1    4194    4191       2
    4197    4191       2    4197    4194       1    4203    4200       2    4206
    4200       2    4206    4203       1    4212    4209       2    4215    4209
       2    4215    4212       1    4221    4218       2    4224    4218       2
    4224    4221       1    4230    4227       2    4233    4227       2    4233
    4230       1    4239    4236       2    4242    4236       2    4242    4239
       1    4248    4245       2    4251    4245       2    4251    4248       1
    4257    4254       2    4260    4254       2    4260    4257       1    4266
    4263       2    4269    4263       2    4269    4266       1    4275    4272
       2    4278    4272       2    4278    4275       1    4284    4281       2
    4287    4281       2    4287    4284       1    4293    4290       2    4296
    4290       2    4296    4293       1    4302    4299       2    4305    4299
       2    4305    4302       1    4311    4308       2    4314    4308       2
    4314    4311       1    4320    4317       2    4323    4317       2    4323
    4320       1    4329    4326       2    4332    4326       2    4332    4329
       1    4338    4335       2    4341    4335       2    4341    4338       1
    4347    4344       2    4350    4344       2    4350    4347       1    4356
    4353       2    4359    4353       2    4359    4356       1    4365    4362
       2    4368    4362       2    4368    4365       1    4374    4371       2
    4377    4371       2    4377    4374       1    4383    4380       2    4386
    4380       2    4386    4383       1    4392    4389       2    4395    4389
       2    4395    4392       1    4401    4398       2    4404    4398       2
    4404    4401       1    4410    4407       2    4413    4407       2    4413
    4410       1    4419    4416       2    4422    4416       2    4422    4419
       1    4428    4425       2    4431    4425       2    4431    4428       1
    4437    4434       2    4440    4434       2    4440    4437       1    4446
    4443       2    4449    4443       2    4449    4446       1    4455    4452
       2    4458    4452       2    4458    4455       1    4464    4461       2
    4467    4461       2    4467    4464       1    4473    4470       2    4476
    4470       2    4476    4473       1    4482    4479       2    4485    4479
       2    4485    4482       1    4491    4488       2    4494    4488       2
    4494    4491       1    4500    4497       2    4503    4497       2    4503
    4500       1    4509    4506       2    4512    4506       2    4512    4509
       1    4518    4515       2    4521    4515       2    4521    4518       1
    4527    4524       2    4530    4524       2    4530    4527       1    4536
    4533       2    4539    4533       2    4539    4536       1    4545    4542
       2    4548    4542       2    4548    4545       1    4554    4551       2
    4557    4551       2    4557    4554       1    4563    4560       2    4566
    4560       2    4566    4563       1    4572    4569       2    4575    4569
       2    4575    4572       1    4581    4578       2    4584    4578       2
    4584    4581       1    4590    4587       2    4593    4587       2    4593
    4590       1    4599    4596       2    4602    4596       2    4602    4599
       1    4608    4605       2    4611    4605       2    4611    4608       1
    4617    4614       2    4620    4614       2    4620    4617       1    4626
    4623       2    4629    4623       2    4629    4626       1    4635    4632
       2    4638    4632       2    4638    4635       1    4644    4641       2
    4647    4641       2    4647    4644       1    4653    4650       2    4656
    4650       2    4656    4653       1    4662    4659       2    4665    4659
       2    4665    4662       1    4671    4668       2    4674    4668       2
    4674    4671       1    4680    4677       2    4683    4677       2    4683
    4680       1    4689    4686       2    4692    4686       2    4692    4689
       1    4698    4695       2    4701    4695       2    4701    4698       1
    4707    4704       2    4710    4704       2    4710    4707       1    4716
    4713       2    4719    4713       2    4719    4716       1    4725    4722
       2    4728    4722       2    4728    4725       1    4734    4731       2
    4737    4731       2    4737    4734       1    4743    4740       2    4746
    4740       2    4746    4743       1    4752    4749       2    4755    4749
       2    4755    4752       1    4761    4758       2    4764    4758       2
    4764    4761       1    4770    4767       2    4773    4767       2    4773
    4770       1    4779    4776       2    4782    4776       2    4782    4779
       1    4788    4785       2    4791    4785       2    4791    4788       1
    4797    4794       2    4800    4794       2    4800    4797       1    4806
    4803       2    4809    4803       2    4809    4806       1    4815    4812
       2    4818    4812       2    4818    4815       1    4824    4821       2
    4827    4821       2    4827    4824       1    4833    4830       2    4836
    4830       2    4836    4833       1    4842    4839       2    4845    4839
       2    4845    4842       1    4851    4848       2    4854    4848       2
    4854    4851       1    4860    4857       2    4863    4857       2    4863
    4860       1    4869    4866       2    4872    4866       2    4872    4869
       1    4878    4875       2    4881    4875       2    4881    4878       1
    4887    4884       2    4890    4884       2    4890    4887       1    4896
    4893       2    4899    4893       2    4899    4896       1    4905    4902
       2    4908    4902       2    4908    4905       1    4914    4911       2
    4917    4911       2    4917    4914       1    4923    4920       2    4926
    4920       2    4926    4923       1    4932    4929       2    4935    4929
       2    4935    4932       1    4941    4938       2    4944    4938       2
    4944    4941       1    4950    4947       2    4953    4947       2    4953
    4950       1    4959    4956       2    4962    4956       2    4962    4959
       1    4968    4965       2    4971    4965       2    4971    4968       1
    4977    4974       2    4980    4974       2    4980    4977       1    4986
    4983       2    4989    4983       2    4989    4986       1    4995    4992
       2    4998    4992       2    4998    4995       1    5004    5001       2
    5007    5001       2    5007    5004       1    5013    5010       2    5016
    5010       2    5016    5013       1    5022    5019       2    5025    5019
       2    5025    5022       1    5031    5028       2    5034    5028       2
    5034    5031       1    5040    5037       2    5043    5037       2    5043
    5040       1    5049    5046       2    5052    5046       2    5052    5049
       1    5058    5055       2    5061    5055       2    5061    5058       1
    5067    5064       2    5070    5064       2    5070    5067       1    5076
    5073       2    5079    5073       2    5079    5076       1    5085    5082
       2    5088    5082       2    5088    5085       1    5094    5091       2
    5097    5091       2    5097    5094       1    5103    5100       2    5106
    5100       2    5106    5103       1    5112    5109       2    5115    5109
       2    5115    5112       1    5121    5118       2    5124    5118       2
    5124    5121       1    5130    5127       2    5133    5127       2    5133
    5130       1    5139    5136       2    5142    5136       2    5142    5139
       1    5148    5145       2    5151    5145       2    5151    5148       1
    5157    5154       2    5160    5154       2    5160    5157       1    5166
    5163       2    5169    5163       2    5169    5166       1    5175    5172
       2    5178    5172       2    5178    5175       1    5184    5181       2
    5187    5181       2    5187    5184       1    5193    5190       2    5196
    5190       2    5196    5193       1    5202    5199       2    5205    5199
       2    5205    5202       1    5211    5208       2    5214    5208       2
    5214    5211       1    5220    5217       2    5223    5217       2    5223
    5220       1    5229    5226       2    5232    5226       2    5232    5229
       1    5238    5235       2    5241    5235       2    5241    5238       1
    5247    5244       2    5250    5244       2    5250    5247       1    5256
    5253       2    5259    5253       2    5259    5256       1    5265    5262
       2    5268    5262       2    5268    5265       1    5274    5271       2
    5277    5271       2    5277    5274       1    5283    5280       2    5286
    5280       2    5286    5283       1    5292    5289       2    5295    5289
       2    5295    5292       1    5301    5298       2    5304    5298       2
    5304    5301       1    5310    5307       2    5313    5307       2    5313
    5310       1    5319    5316       2    5322    5316       2    5322    5319
       1    5328    5325       2    5331    5325       2    5331    5328       1
    5337    5334       2    5340    5334       2    5340    5337       1    5346
    5343       2    5349    5343       2    5349    5346       1    5355    5352
       2    5358    5352       2    5358    5355       1    5364    5361       2
    5367    5361       2    5367    5364       1    5373    5370       2    5376
    5370       2    5376    5373       1    5382    5379       2    5385    5379
       2    5385    5382       1    5391    5388       2    5394    5388       2
    5394    5391       1    5400    5397       2    5403    5397       2    5403
    5400       1    5409    5406       2    5412    5406       2    5412    5409
       1    5418    5415       2    5421    5415       2    5421    5418       1
    5427    5424       2    5430    5424       2    5430    5427       1    5436
    5433       2    5439    5433       2    5439    5436       1    5445    5442
       2    5448    5442       2    5448    5445       1    5454    5451       2
    5457    5451       2    5457    5454       1    5463    5460       2    5466
    5460       2    5466    5463       1    5472    5469       2    5475    5469
       2    5475    5472       1    5481    5478       2    5484    5478       2
    5484    5481       1    5490    5487       2    5493    5487       2    5493
    5490       1    5499    5496       2    5502    5496       2    5502    5499
       1    5508    5505       2    5511    5505       2    5511    5508       1
    5517    5514       2    5520    5514       2    5520    5517       1    5526
    5523       2    5529    5523       2    5529    5526       1
%FLAG BONDS_WITHOUT_HYDROGEN                                                    
%FORMAT(10I8)                                                                   

%FLAG ANGLES_INC_HYDROGEN                                                       
%FORMAT(10I8)                                                                   

%FLAG ANGLES_WITHOUT_HYDROGEN                                                   
%FORMAT(10I8)                                                                   

%FLAG DIHEDRALS_INC_HYDROGEN                                                    
%FORMAT(10I8)                                                                   

%FLAG DIHEDRALS_WITHOUT_HYDROGEN                                                
%FORMAT(10I8)                                                                   

%FLAG EXCLUDED_ATOMS_LIST                                                       
%FORMAT(10I8)                                                                   
       0       0       0       0       0       0       0       0      10      11
      11       0      13      14      14       0      16      17      17       0
      19      20      20       0      22      23      23       0      25      26
      26       0      28      29      29       0      31      32      32       0
      34      35      35       0      37      38      38       0      40      41
      41       0      43      44      44       0      46      47      47       0
      49      50      50       0      52      53      53       0      55      56
      56       0      58      59      59       0      61      62      62       0
      64      65      65       0      67      68      68       0      70      71
      71       0      73      74      74       0      76      77      77       0
      79      80      80       0      82      83      83       0      85      86
      86       0      88      89      89       0      91      92      92       0
      94      95      95       0      97      98      98       0     100     101
     101       0     103     104     104       0     106     107     107       0
     109     110     110       0     112     113     113       0     115     116
     116       0     118     119     119       0     121     122     122       0
     124     125     125       0     127     128     128       0     130     131
     131       0     133     134     134       0     136     137     137       0
     139     140     140       0     142     143     143       0     145     146
     146       0     148     149     149       0     151     152     152       0
     154     155     155       0     157     158     158       0     160     161
     161       0     163     164     164       0     166     167     167       0
     169     170     170       0     172     173     173       0     175     176
     176       0     178     179     179       0     181     182     182       0
     184     185     185       0     187     188     188       0     190     191
     191       0     193     194     194       0     196     197     197       0
     199     200     200       0     202     203     203       0     205     206
     206       0     208     209     209       0     211     212     212       0
     214     215     215       0     217     218     218       0     220     221
     221       0     223     224     224       0     226     227     227       0
     229     230     230       0     232     233     233       0     235     236
     236       0     238     239     239       0     241     242     242       0
     244     245     245       0     247     248     248       0     250     251
     251       0     253     254     254       0     256     257     257       0
     259     260     260       0     262     263     263       0     265     266
     266       0     268     269     269       0     271     272     272       0
     274     275     275       0     277     278     278       0     280     281
     281       0     283     284     284       0     286     287     287       0
     289     290     290       0     292     293     293       0     295     296
     296       0     298     299     299       0     301     302     302       0
     304     305     305       0     307     308     308       0     310     311
     311       0     313     314     314       0     316     317     317       0
     319     320     320       0     322     323     323       0     325     326
     326       0     328     329     329       0     331     332     332       0
     334     335     335       0     337     338     338       0     340     341
     341       0     343     344     344       0     346     347     347       0
     349     350     350       0     352     353     353       0     355     356
     356       0     358     359     359       0     361     362     362       0
     364     365     365       0     367     368     368       0     370     371
     371       0     373     374     374       0     376     377     377       0
     379     380     380       0     382     383     383       0     385     386
     386       0     388     389     389       0     391     392     392       0
     394     395     395       0     397     398     398       0     400     401
     401       0     403     404     404       0     406     407     407       0
     409     410     410       0     412     413     413       0     415     416
     416       0     418     419     419       0     421     422     422       0
     424     425     425       0     427     428     428       0     430     431
     431       0     433     434     434       0     436     437     437       0
     439     440     440       0     442     443     443       0     445     446
     446       0     448     449     449       0     451     452     452       0
     454     455     455       0     457     458     458       0     460     461
     461       0     463     464     464       0     466     467     467       0
     469     470     470       0     472     473     473       0     475     476
     476       0     478     479     479       0     481     482     482       0
     484     485     485       0     487     488     488       0     490     491
     491       0     493     494     494       0     496     497     497       0
     499     500     500       0     502     503     503       0     505     506
     506       0     508     509     509       0     511     512     512       0
     514     515     515       0     517     518     518       0     520     521
     521       0     523     524     524       0     526     527     527       0
     529     530     530       0     532     533     533       0     535     536
     536       0     538     539     539       0     541     542     542       0
     544     545     545       0     547     548     548       0     550     551
     551       0     553     554     554       0     556     557     557       0
     559     560     560       0     562     563     563       0     565     566
     566       0     568     569     569       0     571     572     572       0
     574     575     575       0     577     578     578       0     580     581
     581       0     583     584     584       0     586     587     587       0
     589     590     590       0     592     593     593       0     595     596
     596       0     598     599     599       0     601     602     602       0
     604     605     605       0     607     608     608       0     610     611
     611       0     613     614     614       0     616     617     617       0
     619     620     620       0     622     623     623       0     625     626
     626       0     628     629     629       0     631     632     632       0
     634     635     635       0     637     638     638       0     640     641
     641       0     643     644     644       0     646     647     647       0
     649     650     650       0     652     653     653       0     655     656
     656       0     658     659     659       0     661     662     662       0
     664     665     665       0     667     668     668       0     670     671
     671       0     673     674     674       0     676     677     677       0
     679     680     680       0     682     683     683       0     685     686
     686       0     688     689     689       0     691     692     692       0
     694     695     695       0     697     698     698       0     700     701
     701       0     703     704     704       0     706     707     707       0
     709     710     710       0     712     713     713       0     715     716
     716       0     718     719     719       0     721     722     722       0
     724     725     725       0     727     728     728       0     730     731
     731       0     733     734     734       0     736     737     737       0
     739     740     740       0     742     743     743       0     745     746
     746       0     748     749     749       0     751     752     752       0
     754     755     755       0     757     758     758       0     760     761
     761       0     763     764     764       0     766     767     767       0
     769     770     770       0     772     773     773       0     775     776
     776       0     778     779     779       0     781     782     782       0
     784     785     785       0     787     788     788       0     790     791
     791       0     793     794     794       0     796     797     797       0
     799     800     800       0     802     803     803       0     805     806
     806       0     808     809     809       0     811     812     812       0
     814     815     815       0     817     818     818       0     820     821
     821       0     823     824     824       0     826     827     827       0
     829     830     830       0     832     833     833       0     835     836
     836       0     838     839     839       0     841     842     842       0
     844     845     845       0     847     848     848       0     850     851
     851       0     853     854     854       0     856     857     857       0
     859     860     860       0     862     863     863       0     865     866
     866       0     868     869     869       0     871     872     872       0
     874     875     875       0     877     878     878       0     880     881
     881       0     883     884     884       0     886     887     887       0
     889     890     890       0     892     893     893       0     895     896
     896       0     898     899     899       0     901     902     902       0
     904     905     905       0     907     908     908       0     910     911
     911       0     913     914     914       0     916     917     917       0
     919     920     920       0     922     923     923       0     925     926
     926       0     928     929     929       0     931     932     932       0
     934     935     935       0     937     938     938       0     940     941
     941       0     943     944     944       0     946     947     947       0
     949     950     950       0     952     953     953       0     955     956
     956       0     958     959     959       0     961     962     962       0
     964     965     965       0     967     968     968       0     970     971
     971       0     973     974     974       0     976     977     977       0
     979     980     980       0     982     983     983       0     985     986
     986       0     988     989     989       0     991     992     992       0
     994     995     995       0     997     998     998       0    1000    1001
    1001       0    1003    1004    1004       0    1006    1007    1007       0
    1009    1010    1010       0    1012    1013    1013       0    1015    1016
    1016       0    1018    1019    1019       0    1021    1022    1022       0
    1024    1025    1025       0    1027    1028    1028       0    1030    1031
    1031       0    1033    1034    1034       0    1036    1037    1037       0
    1039    1040    1040       0    1042    1043    1043       0    1045    1046
    1046       0    1048    1049    1049       0    1051    1052    1052       0
    1054    1055    1055       0    1057    1058    1058       0    1060    1061
    1061       0    1063    1064    1064       0    1066    1067    1067       0
    1069    1070    1070       0    1072    1073    1073       0    1075    1076
    1076       0    1078    1079    1079       0    1081    1082    1082       0
    1084    1085    1085       0    1087    1088    1088       0    1090    1091
    1091       0    1093    1094    1094       0    1096    1097    1097       0
    1099    1100    1100       0    1102    1103    1103       0    1105    1106
    1106       0    1108    1109    1109       0    1111    1112    1112       0
    1114    1115    1115       0    1117    1118    1118       0    1120    1121
    1121       0    1123    1124    1124       0    1126    1127    1127       0
    1129    1130    1130       0    1132    1133    1133       0    1135    1136
    1136       0    1138    1139    1139       0    1141    1142    1142       0
    1144    1145    1145       0    1147    1148    1148       0    1150    1151
    1151       0    1153    1154    1154       0    1156    1157    1157       0
    1159    1160    1160       0    1162    1163    1163       0    1165    1166
    1166       0    1168    1169    1169       0    1171    1172    1172       0
    1174    1175    1175       0    1177    1178    1178       0    1180    1181
    1181       0    1183    1184    1184       0    1186    1187    1187       0
    1189    1190    1190       0    1192    1193    1193       0    1195    1196
    1196       0    1198    1199    1199       0    1201    1202    1202       0
    1204    1205    1205       0    1207    1208    1208       0    1210    1211
    1211       0    1213    1214    1214       0    1216    1217    1217       0
    1219    1220    1220       0    1222    1223    1223       0    1225    1226
    1226       0    1228    1229    1229       0    1231    1232    1232       0
    1234    1235    1235       0    1237    1238    1238       0    1240    1241
    1241       0    1243    1244    1244       0    1246    1247    1247       0
    1249    1250    1250       0    1252    1253    1253       0    1255    1256
    1256       0    1258    1259    1259       0    1261    1262    1262       0
    1264    1265    1265       0    1267    1268    1268       0    1270    1271
    1271       0    1273    1274    1274       0    1276    1277    1277       0
    1279    1280    1280       0    1282    1283    1283       0    1285    1286
    1286       0    1288    1289    1289       0    1291    1292    1292       0
    1294    1295    1295       0    1297    1298    1298       0    1300    1301
    1301       0    1303    1304    1304       0    1306    1307    1307       0
    1309    1310    1310       0    1312    1313    1313       0    1315    1316
    1316       0    1318    1319    1319       0    1321    1322    1322       0
    1324    1325    1325       0    1327    1328    1328       0    1330    1331
    1331       0    1333    1334    1334       0    1336    1337    1337       0
    1339    1340    1340       0    1342    1343    1343       0    1345    1346
    1346       0    1348    1349    1349       0    1351    1352    1352       0
    1354    1355    1355       0    1357    1358    1358       0    1360    1361
    1361       0    1363    1364    1364       0    1366    1367    1367       0
    1369    1370    1370       0    1372    1373    1373       0    1375    1376
    1376       0    1378    1379    1379       0    1381    1382    1382       0
    1384    1385    1385       0    1387    1388    1388       0    1390    1391
    1391       0    1393    1394    1394       0    1396    1397    1397       0
    1399    1400    1400       0    1402    1403    1403       0    1405    1406
    1406       0    1408    1409    1409       0    1411    1412    1412       0
    1414    1415    1415       0    1417    1418    1418       0    1420    1421
    1421       0    1423    1424    1424       0    1426    1427    1427       0
    1429    1430    1430       0    1432    1433    1433       0    1435    1436
    1436       0    1438    1439    1439       0    1441    1442    1442       0
    1444    1445    1445       0    1447    1448    1448       0    1450    1451
    1451       0    1453    1454    1454       0    1456    1457    1457       0
    1459    1460    1460       0    1462    1463    1463       0    1465    1466
    1466       0    1468    1469    1469       0    1471    1472    1472       0
    1474    1475    1475       0    1477    1478    1478       0    1480    1481
    1481       0    1483    1484    1484       0    1486    1487    1487       0
    1489    1490    1490       0    1492    1493    1493       0    1495    1496
    1496       0    1498    1499    1499       0    1501    1502    1502       0
    1504    1505    1505       0    1507    1508    1508       0    1510    1511
    1511       0    1513    1514    1514       0    1516    1517    1517       0
    1519    1520    1520       0    1522    1523    1523       0    1525    1526
    1526       0    1528    1529    1529       0    1531    1532    1532       0
    1534    1535    1535       0    1537    1538    1538       0    1540    1541
    1541       0    1543    1544    1544       0    1546    1547    1547       0
    1549    1550    1550       0    1552    1553    1553       0    1555    1556
    1556       0    1558    1559    1559       0    1561    1562    1562       0
    1564    1565    1565       0    1567    1568    1568       0    1570    1571
    1571       0    1573    1574    1574       0    1576    1577    1577       0
    1579    1580    1580       0    1582    1583    1583       0    1585    1586
    1586       0    1588    1589    1589       0    1591    1592    1592       0
    1594    1595    1595       0    1597    1598    1598       0    1600    1601
    1601       0    1603    1604    1604       0    1606    1607    1607       0
    1609    1610    1610       0    1612    1613    1613       0    1615    1616
    1616       0    1618    1619    1619       0    1621    1622    1622       0
    1624    1625    1625       0    1627    1628    1628       0    1630    1631
    1631       0    1633    1634    1634       0    1636    1637    1637       0
    1639    1640    1640       0    1642    1643    1643       0    1645    1646
    1646       0    1648    1649    1649       0    1651    1652    1652       0
    1654    1655    1655       0    1657    1658    1658       0    1660    1661
    1661       0    1663    1664    1664       0    1666    1667    1667       0
    1669    1670    1670       0    1672    1673    1673       0    1675    1676
    1676       0    1678    1679    1679       0    1681    1682    1682       0
    1684    1685    1685       0    1687    1688    1688       0    1690    1691
    1691       0    1693    1694    1694       0    1696    1697    1697       0
    1699    1700    1700       0    1702    1703    1703       0    1705    1706
    1706       0    1708    1709    1709       0    1711    1712    1712       0
    1714    1715    1715       0    1717    1718    1718       0    1720    1721
    1721       0    1723    1724    1724       0    1726    1727    1727       0
    1729    1730    1730       0    1732    1733    1733       0    1735    1736
    1736       0    1738    1739    1739       0    1741    1742    1742       0
    1744    1745    1745       0    1747    1748    1748       0    1750    1751
    1751       0    1753    1754    1754       0    1756    1757    1757       0
    1759    1760    1760       0    1762    1763    1763       0    1765    1766
    1766       0    1768    1769    1769       0    1771    1772    1772       0
    1774    1775    1775       0    1777    1778    1778       0    1780    1781
    1781       0    1783    1784    1784       0    1786    1787    1787       0
    1789    1790    1790       0    1792    1793    1793       0    1795    1796
    1796       0    1798    1799    1799       0    1801    1802    1802       0
    1804    1805    1805       0    1807    1808    1808       0    1810    1811
    1811       0    1813    1814    1814       0    1816    1817    1817       0
    1819    1820    1820       0    1822    1823    1823       0    1825    1826
    1826       0    1828    1829    1829       0    1831    1832    1832       0
    1834    1835    1835       0    1837    1838    1838       0    1840    1841
    1841       0    1843    1844    1844       0
%FLAG HBOND_ACOEF                                                               
%FORMAT(5E16.8)                                                                 

%FLAG HBOND_BCOEF                                                               
%FORMAT(5E16.8)                                                                 

%FLAG HBCUT                                                                     
%FORMAT(5E16.8)                                                                 

%FLAG AMBER_ATOM_TYPE                                                           
%FORMAT(20a4)                                                                   
Na+ Na+ Na+ Na+ Cl- Cl- Cl- Cl- OW  HW  HW  OW  HW  HW  OW  HW  HW  OW  HW  HW  
OW  HW  HW  OW  HW  HW  OW  HW  HW  OW  HW  HW  OW  HW  HW  OW  HW  HW  OW  HW  
HW  OW  HW  HW  OW  HW  HW  OW  HW  HW  OW  HW  HW  OW  HW  HW  OW  HW  HW  OW  
HW  HW  OW  HW  HW  OW  HW  HW  OW  HW  HW  OW  HW  HW  OW  HW  HW  OW  HW  HW  
OW  HW  HW  OW  HW  HW  OW  HW  HW  OW  HW  HW  OW  HW  HW  OW  HW  HW  OW  HW  
HW  OW  HW  HW  OW  HW  HW  OW  HW  HW  OW  HW  HW  OW  HW  HW  OW  HW  HW  OW  
HW  HW  OW  HW  HW  OW  HW  HW  OW  HW  HW  OW  HW  HW  OW  HW  HW  OW  HW  HW  
OW  HW  HW  OW  HW  HW  OW  HW  HW  OW  HW  HW  OW  HW  HW  OW  HW  HW  OW  HW  
HW  OW  HW  HW  OW  HW  HW  OW  HW  HW  OW  HW  HW  OW  HW  HW  OW  HW  HW  OW  
HW  HW  OW  HW  HW  OW  HW  HW  OW  HW  HW  OW  HW  HW  OW  HW  HW  OW  HW  HW  
OW  HW  HW  OW  HW  HW  OW  HW  HW  OW  HW  HW  OW  HW  HW  OW  HW  HW  OW  HW  
HW  OW  HW  HW  OW  HW  HW  OW  HW  HW  OW  HW  HW  OW  HW  HW  OW  HW  HW  OW  
HW  HW  OW  HW  HW  OW  HW  HW  OW  HW  HW  OW  HW  HW  OW  HW  HW  OW  HW  HW  
OW  HW  HW  OW  HW  HW  OW  HW  HW  OW  HW  HW  OW  HW  HW  OW  HW  HW  OW  HW  
HW  OW  HW  HW  OW  HW  HW  OW  HW  HW  OW  HW  HW  OW  HW  HW  OW  HW  HW  OW  
HW  HW  OW  HW  HW  OW  HW  HW  OW  HW  HW  OW  HW  HW  OW  HW  HW  OW  HW  HW  
OW  HW  HW  OW  HW  HW  OW  HW  HW  OW  HW  HW  OW  HW  HW  OW  HW  HW  OW  HW  
HW  OW  HW  HW  OW  HW  HW  OW  HW  HW  OW  HW  HW  OW  HW  HW  OW  HW  HW  OW  
HW  HW  OW  HW  HW  OW  HW  HW  OW  HW  HW  OW  HW  HW  OW  HW  HW  OW  HW  HW  
OW  HW  HW  OW  HW  HW  OW  HW  HW  OW  HW  HW  OW  HW  HW  OW  HW  HW  OW  HW  
HW  OW  HW  HW  OW  HW  HW  OW  HW  HW  OW  HW  HW  OW  HW  HW  OW  HW  HW  OW  
HW  HW  OW  HW  HW  OW  HW  HW  OW  HW  HW  OW  HW  HW  OW  HW  HW  OW  HW  HW  
OW  HW  HW  OW  HW  HW  OW  HW  HW  OW  HW  HW  OW  HW  HW  OW  HW  HW  OW  HW  
HW  OW  HW  HW  OW  HW  HW  OW  HW  HW  OW  HW  HW  OW  HW  HW  OW  HW  HW  OW  
HW  HW  OW  HW  HW  OW  HW  HW  OW  HW  HW  OW  HW  HW  OW  HW  HW  OW  HW  HW  
OW  HW  HW  OW  HW  HW  OW  HW  HW  OW  HW  HW  OW  HW  HW  OW  HW  HW  OW  HW  
HW  OW  HW  HW  OW  HW  HW  OW  HW  HW  OW  HW  HW  OW  HW  HW  OW  HW  HW  OW  
HW  HW  OW  HW  HW  OW  HW  HW  OW  HW  HW  OW  HW  HW  OW  HW  HW  OW  HW  HW  
OW  HW  HW  OW  HW  HW  OW  HW  HW  OW  HW  HW  OW  HW  HW  OW  HW  HW  OW  HW  
HW  OW  HW  HW  OW  HW  HW  OW  HW  HW  OW  HW  HW  OW  HW  HW  OW  HW  HW  OW  
HW  HW  OW  HW  HW  OW  HW  HW  OW  HW  HW  OW  HW  HW  OW  HW  HW  OW  HW  HW  
OW  HW  HW  OW  HW  HW  OW  HW  HW  OW  HW  HW  OW  HW  HW  OW  HW  HW  OW  HW  
HW  OW  HW  HW  OW  HW  HW  OW  HW  HW  OW  HW  HW  OW  HW  HW  OW  HW  HW  OW  
HW  HW  OW  HW  HW  OW  HW  HW  OW  HW  HW  OW  HW  HW  OW  HW  HW  OW  HW  HW  
OW  HW  HW  OW  HW  HW  OW  HW  HW  OW  HW  HW  OW  HW  HW  OW  HW  HW  OW  HW  
HW  OW  HW  HW  OW  HW  HW  OW  HW  HW  OW  HW  HW  OW  HW  HW  OW  HW  HW  OW  
HW  HW  OW  HW  HW  OW  HW  HW  OW  HW  HW  OW  HW  HW  OW  HW  HW  OW  HW  HW  
OW  HW  HW  OW  HW  HW  OW  HW  HW  OW  HW  HW  OW  HW  HW  OW  HW  HW  OW  HW  
HW  OW  HW  HW  OW  HW  HW  OW  HW  HW  OW  HW  HW  OW  HW  HW  OW  HW  HW  OW  
HW  HW  OW  HW  HW  OW  HW  HW  OW  HW  HW  OW  HW  HW  OW  HW  HW  OW  HW  HW  
OW  HW  HW  OW  HW  HW  OW  HW  HW  OW  HW  HW  OW  HW  HW  OW  HW  HW  OW  HW  
HW  OW  HW  HW  OW  HW  HW  OW  HW  HW  OW  HW  HW  OW  HW  HW  OW  HW  HW  OW  
HW  HW  OW  HW  HW  OW  HW  HW  OW  HW  HW  OW  HW  HW  OW  HW  HW  OW  HW  HW  
OW  HW  HW  OW  HW  HW  OW  HW  HW  OW  HW  HW  OW  HW  HW  OW  HW  HW  OW  HW  
HW  OW  HW  HW  OW  HW  HW  OW  HW  HW  OW  HW  HW  OW  HW  HW  OW  HW  HW  OW  
HW  HW  OW  HW  HW  OW  HW  HW  OW  HW  HW  OW  HW  HW  OW  HW  HW  OW  HW  HW  
OW  HW  HW  OW  HW  HW  OW  HW  HW  OW  HW  HW  OW  HW  HW  OW  HW  HW  OW  HW  
HW  OW  HW  HW  OW  HW  HW  OW  HW  HW  OW  HW  HW  OW  HW  HW  OW  HW  HW  OW  
HW  HW  OW  HW  HW  OW  HW  HW  OW  HW  HW  OW  HW  HW  OW  HW  HW  OW  HW  HW  
OW  HW  HW  OW  HW  HW  OW  HW  HW  OW  HW  HW  OW  HW  HW  OW  HW  HW  OW  HW  
HW  OW  HW  HW  OW  HW  HW  OW  HW  HW  OW  HW  HW  OW  HW  HW  OW  HW  HW  OW  
HW  HW  OW  HW  HW  OW  HW  HW  OW  HW  HW  OW  HW  HW  OW  HW  HW  OW  HW  HW  
OW  HW  HW  OW  HW  HW  OW  HW  HW  OW  HW  HW  OW  HW  HW  OW  HW  HW  OW  HW  
HW  OW  HW  HW  OW  HW  HW  OW  HW  HW  OW  HW  HW  OW  HW  HW  OW  HW  HW  OW  
HW  HW  OW  HW  HW  OW  HW  HW  OW  HW  HW  OW  HW  HW  OW  HW  HW  OW  HW  HW  
OW  HW  HW  OW  HW  HW  OW  HW  HW  OW  HW  HW  OW  HW  HW  OW  HW  HW  OW  HW  
HW  OW  HW  HW  OW  HW  HW  OW  HW  HW  OW  HW  HW  OW  HW  HW  OW  HW  HW  OW  
HW  HW  OW  HW  HW  OW  HW  HW  OW  HW  HW  OW  HW  HW  OW  HW  HW  OW  HW  HW  
OW  HW  HW  OW  HW  HW  OW  HW  HW  OW  HW  HW  OW  HW  HW  OW  HW  HW  OW  HW  
HW  OW  HW  HW  OW  HW  HW  OW  HW  HW  OW  HW  HW  OW  HW  HW  OW  HW  HW  OW  
HW  HW  OW  HW  HW  OW  HW  HW  OW  HW  HW  OW  HW  HW  OW  HW  HW  OW  HW  HW  
OW  HW  HW  OW  HW  HW  OW  HW  HW  OW  HW  HW  OW  HW  HW  OW  HW  HW  OW  HW  
HW  OW  HW  HW  OW  HW  HW  OW  HW  HW  OW  HW  HW  OW  HW  HW  OW  HW  HW  OW  
HW  HW  OW  HW  HW  OW  HW  HW  OW  HW  HW  OW  HW  HW  OW  HW  HW  OW  HW  HW  
OW  HW  HW  OW  HW  HW  OW  HW  HW  OW  HW  HW  OW  HW  HW  OW  HW  HW  OW  HW  
HW  OW  HW  HW  OW  HW  HW  OW  HW  HW  OW  HW  HW  OW  HW  HW  OW  HW  HW  OW  
HW  HW  OW  HW  HW  OW  HW  HW  OW  HW  HW  OW  HW  HW  OW  HW  HW  OW  HW  HW  
OW  HW  HW  OW  HW  HW  OW  HW  HW  OW  HW  HW  OW  HW  HW  OW  HW  HW  OW  HW  
HW  OW  HW  HW  OW  HW  HW  OW  HW  HW  OW  HW  HW  OW  HW  HW  OW  HW  HW  OW  
HW  HW  OW  HW  HW  OW  HW  HW  OW  HW  HW  OW  HW  HW  OW  HW  HW  OW  HW  HW  
OW  HW  HW  OW  HW  HW  OW  HW  HW  OW  HW  HW  OW  HW  HW  OW  HW  HW  OW  HW  
HW  OW  HW  HW  OW  HW  HW  OW  HW  HW  OW  HW  HW  OW  HW  HW  OW  HW  HW  OW  
HW  HW  OW  HW  HW  OW  HW  HW  OW  HW  HW  OW  HW  HW  OW  HW  HW  OW  HW  HW  
OW  HW  HW  OW  HW  HW  OW  HW  HW  OW  HW  HW  OW  HW  HW  OW  HW  HW  OW  HW  
HW  OW  HW  HW  OW  HW  HW  OW  HW  HW  OW  HW  HW  OW  HW  HW  OW  HW  HW  OW  
HW  HW  OW  HW  HW  OW  HW  HW  OW  HW  HW  OW  HW  HW  OW  HW  HW  OW  HW  HW  
OW  HW  HW  OW  HW  HW  OW  HW  HW  OW  HW  HW  OW  HW  HW  OW  HW  HW  OW  HW  
HW  OW  HW  HW  OW  HW  HW  OW  HW  HW  OW  HW  HW  OW  HW  HW  OW  HW  HW  OW  
HW  HW  OW  HW  HW  OW  HW  HW  OW  HW  HW  OW  HW  HW  OW  HW  HW  OW  HW  HW  
OW  HW  HW  OW  HW  HW  OW  HW  HW  OW  HW  HW  OW  HW  HW  OW  HW  HW  OW  HW  
HW  OW  HW  HW  OW  HW  HW  OW  HW  HW  OW  HW  HW  OW  HW  HW  OW  HW  HW  OW  
HW  HW  OW  HW  HW  OW  HW  HW  OW  HW  HW  OW  HW  HW  OW  HW  HW  OW  HW  HW  
OW  HW  HW  OW  HW  HW  OW  HW  HW  OW  HW  HW  OW  HW  HW  OW  HW  HW  OW  HW  
HW  OW  HW  HW  OW  HW  HW  OW  HW  HW  OW  HW  HW  OW  HW  HW  OW  HW  HW  OW  
HW  HW  OW  HW  HW  OW  HW  HW  OW  HW  HW  OW  HW  HW  OW  HW  HW  OW  HW  HW  
OW  HW  HW  OW  HW  HW  OW  HW  HW  OW  HW  HW  OW  HW  HW  OW  HW  HW  OW  HW  
HW  OW  HW  HW  OW  HW  HW  OW  HW  HW  OW  HW  HW  OW  HW  HW  OW  HW  HW  OW  
HW  HW  OW  HW  HW  OW  HW  HW  OW  HW  HW  OW  HW  HW  OW  HW  HW  OW  HW  HW  
OW  HW  HW  OW  HW  HW  OW  HW  HW  OW  HW  HW  OW  HW  HW  OW  HW  HW  OW  HW  
HW  OW  HW  HW  OW  HW  HW  OW  HW  HW  OW  HW  HW  OW  HW  HW  OW  HW  HW  OW  
HW  HW  OW  HW  HW  OW  HW  HW  OW  HW  HW  OW  HW  HW  OW  HW  HW  OW  HW  HW  
OW  HW  HW  OW  HW  HW  OW  HW  HW  OW  HW  HW  OW  HW  HW  OW  HW  HW  OW  HW  
HW  OW  HW  HW  
%FLAG TREE_CHAIN_CLASSIFICATION                                                 
%FORMAT(20a4)                                                                   
M   M   M   M   M   M   M   M   BLA BLA BLA BLA BLA BLA BLA BLA BLA BLA BLA BLA 
BLA BLA BLA BLA BLA BLA BLA BLA BLA BLA BLA BLA BLA BLA BLA BLA BLA BLA BLA BLA 
BLA BLA BLA BLA BLA BLA BLA BLA BLA BLA BLA BLA BLA BLA BLA BLA BLA BLA BLA BLA 
BLA BLA BLA BLA BLA BLA BLA BLA BLA BLA BLA BLA BLA BLA BLA BLA BLA BLA BLA BLA 
BLA BLA BLA BLA BLA BLA BLA BLA BLA BLA BLA BLA BLA BLA BLA BLA BLA BLA BLA BLA 
BLA BLA BLA BLA BLA BLA BLA BLA BLA BLA BLA BLA BLA BLA BLA BLA BLA BLA BLA BLA 
BLA BLA BLA BLA BLA BLA BLA BLA BLA BLA BLA BLA BLA BLA BLA BLA BLA BLA BLA BLA 
BLA BLA BLA BLA BLA BLA BLA BLA BLA BLA BLA BLA BLA BLA BLA BLA BLA BLA BLA BLA 
BLA BLA BLA BLA BLA BLA BLA BLA BLA BLA BLA BLA BLA BLA BLA BLA BLA BLA BLA BLA 
BLA BLA BLA BLA BLA BLA BLA BLA BLA BLA BLA BLA BLA BLA BLA BLA BLA BLA BLA BLA 
BLA BLA BLA BLA BLA BLA BLA BLA BLA BLA BLA BLA BLA BLA BLA BLA BLA BLA BLA BLA 
BLA BLA BLA BLA BLA BLA BLA BLA BLA BLA BLA BLA BLA BLA BLA BLA BLA BLA BLA BLA 
BLA BLA BLA BLA BLA BLA BLA BLA BLA BLA BLA BLA BLA BLA BLA BLA BLA BLA BLA BLA 
BLA BLA BLA BLA BLA BLA BLA BLA BLA BLA BLA BLA BLA BLA BLA BLA BLA BLA BLA BLA 
BLA BLA BLA BLA BLA BLA BLA BLA BLA BLA BLA BLA BLA BLA BLA BLA BLA BLA BLA BLA 
BLA BLA BLA BLA BLA BLA BLA BLA BLA BLA BLA BLA BLA BLA BLA BLA BLA BLA BLA BLA 
BLA BLA BLA BLA BLA BLA BLA BLA BLA BLA BLA BLA BLA BLA BLA BLA BLA BLA BLA BLA 
BLA BLA BLA BLA BLA BLA BLA BLA BLA BLA BLA BLA BLA BLA BLA BLA BLA BLA BLA BLA 
BLA BLA BLA BLA BLA BLA BLA BLA BLA BLA BLA BLA BLA BLA BLA BLA BLA BLA BLA BLA 
BLA BLA BLA BLA BLA BLA BLA BLA BLA BLA BLA BLA BLA BLA BLA BLA BLA BLA BLA BLA 
BLA BLA BLA BLA BLA BLA BLA BLA BLA BLA BLA BLA BLA BLA BLA BLA BLA BLA BLA BLA 
BLA BLA BLA BLA BLA BLA BLA BLA BLA BLA BLA BLA BLA BLA BLA BLA BLA BLA BLA BLA 
BLA BLA BLA BLA BLA BLA BLA BLA BLA BLA BLA BLA BLA BLA BLA BLA BLA BLA BLA BLA 
BLA BLA BLA BLA BLA BLA BLA BLA BLA BLA BLA BLA BLA BLA BLA BLA BLA BLA BLA BLA 
BLA BLA BLA BLA BLA BLA BLA BLA BLA BLA BLA BLA BLA BLA BLA BLA BLA BLA BLA BLA 
BLA BLA BLA BLA BLA BLA BLA BLA BLA BLA BLA BLA BLA BLA BLA BLA BLA BLA BLA BLA 
BLA BLA BLA BLA BLA BLA BLA BLA BLA BLA BLA BLA BLA BLA BLA BLA BLA BLA BLA BLA 
BLA BLA BLA BLA BLA BLA BLA BLA BLA BLA BLA BLA BLA BLA BLA BLA BLA BLA BLA BLA 
BLA BLA BLA BLA BLA BLA BLA BLA BLA BLA BLA BLA BLA BLA BLA BLA BLA BLA BLA BLA 
BLA BLA BLA BLA BLA BLA BLA BLA BLA BLA BLA BLA BLA BLA BLA BLA BLA BLA BLA BLA 
BLA BLA BLA BLA BLA BLA BLA BLA BLA BLA BLA BLA BLA BLA BLA BLA BLA BLA BLA BLA 
BLA BLA BLA BLA BLA BLA BLA BLA BLA BLA BLA BLA BLA BLA BLA BLA BLA BLA BLA BLA 
BLA BLA BLA BLA BLA BLA BLA BLA BLA BLA BLA BLA BLA BLA BLA BLA BLA BLA BLA BLA 
BLA BLA BLA BLA BLA BLA BLA BLA BLA BLA BLA BLA BLA BLA BLA BLA BLA BLA BLA BLA 
BLA BLA BLA BLA BLA BLA BLA BLA BLA BLA BLA BLA BLA BLA BLA BLA BLA BLA BLA BLA 
BLA BLA BLA BLA BLA BLA BLA BLA BLA BLA BLA BLA BLA BLA BLA BLA BLA BLA BLA BLA 
BLA BLA BLA BLA BLA BLA BLA BLA BLA BLA BLA BLA BLA BLA BLA BLA BLA BLA BLA BLA 
BLA BLA BLA BLA BLA BLA BLA BLA BLA BLA BLA BLA BLA BLA BLA BLA BLA BLA BLA BLA 
BLA BLA BLA BLA BLA BLA BLA BLA BLA BLA BLA BLA BLA BLA BLA BLA BLA BLA BLA BLA 
BLA BLA BLA BLA BLA BLA BLA BLA BLA BLA BLA BLA BLA BLA BLA BLA BLA BLA BLA BLA 
BLA BLA BLA BLA BLA BLA BLA BLA BLA BLA BLA BLA BLA BLA BLA BLA BLA BLA BLA BLA 
BLA BLA BLA BLA BLA BLA BLA BLA BLA BLA BLA BLA BLA BLA BLA BLA BLA BLA BLA BLA 
BLA BLA BLA BLA BLA BLA BLA BLA BLA BLA BLA BLA BLA BLA BLA BLA BLA BLA BLA BLA 
BLA BLA BLA BLA BLA BLA BLA BLA BLA BLA BLA BLA BLA BLA BLA BLA BLA BLA BLA BLA 
BLA BLA BLA BLA BLA BLA BLA BLA BLA BLA BLA BLA BLA BLA BLA BLA BLA BLA BLA BLA 
BLA BLA BLA BLA BLA BLA BLA BLA BLA BLA BLA BLA BLA BLA BLA BLA BLA BLA BLA BLA 
BLA BLA BLA BLA BLA BLA BLA BLA BLA BLA BLA BLA BLA BLA BLA BLA BLA BLA BLA BLA 
BLA BLA BLA BLA BLA BLA BLA BLA BLA BLA BLA BLA BLA BLA BLA BLA BLA BLA BLA BLA 
BLA BLA BLA BLA BLA BLA BLA BLA BLA BLA BLA BLA BLA BLA BLA BLA BLA BLA BLA BLA 
BLA BLA BLA BLA BLA BLA BLA BLA BLA BLA BLA BLA BLA BLA BLA BLA BLA BLA BLA BLA 
BLA BLA BLA BLA BLA BLA BLA BLA BLA BLA BLA BLA BLA BLA BLA BLA BLA BLA BLA BLA 
BLA BLA BLA BLA BLA BLA BLA BLA BLA BLA BLA BLA BLA BLA BLA BLA BLA BLA BLA BLA 
BLA BLA BLA BLA BLA BLA BLA BLA BLA BLA BLA BLA BLA BLA BLA BLA BLA BLA BLA BLA 
BLA BLA BLA BLA BLA BLA BLA BLA BLA BLA BLA BLA BLA BLA BLA BLA BLA BLA BLA BLA 
BLA BLA BLA BLA BLA BLA BLA BLA BLA BLA BLA BLA BLA BLA BLA BLA BLA BLA BLA BLA 
BLA BLA BLA BLA BLA BLA BLA BLA BLA BLA BLA BLA BLA BLA BLA BLA BLA BLA BLA BLA 
BLA BLA BLA BLA BLA BLA BLA BLA BLA BLA BLA BLA BLA BLA BLA BLA BLA BLA BLA BLA 
BLA BLA BLA BLA BLA BLA BLA BLA BLA BLA BLA BLA BLA BLA BLA BLA BLA BLA BLA BLA 
BLA BLA BLA BLA BLA BLA BLA BLA BLA BLA BLA BLA BLA BLA BLA BLA BLA BLA BLA BLA 
BLA BLA BLA BLA BLA BLA BLA BLA BLA BLA BLA BLA BLA BLA BLA BLA BLA BLA BLA BLA 
BLA BLA BLA BLA BLA BLA BLA BLA BLA BLA BLA BLA BLA BLA BLA BLA BLA BLA BLA BLA 
BLA BLA BLA BLA BLA BLA BLA BLA BLA BLA BLA BLA BLA BLA BLA BLA BLA BLA BLA BLA 
BLA BLA BLA BLA BLA BLA BLA BLA BLA BLA BLA BLA BLA BLA BLA BLA BLA BLA BLA BLA 
BLA BLA BLA BLA BLA BLA BLA BLA BLA BLA BLA BLA BLA BLA BLA BLA BLA BLA BLA BLA 
BLA BLA BLA BLA BLA BLA BLA BLA BLA BLA BLA BLA BLA BLA BLA BLA BLA BLA BLA BLA 
BLA BLA BLA BLA BLA BLA BLA BLA BLA BLA BLA BLA BLA BLA BLA BLA BLA BLA BLA BLA 
BLA BLA BLA BLA BLA BLA BLA BLA BLA BLA BLA BLA BLA BLA BLA BLA BLA BLA BLA BLA 
BLA BLA BLA BLA BLA BLA BLA BLA BLA BLA BLA BLA BLA BLA BLA BLA BLA BLA BLA BLA 
BLA BLA BLA BLA BLA BLA BLA BLA BLA BLA BLA BLA BLA BLA BLA BLA BLA BLA BLA BLA 
BLA BLA BLA BLA BLA BLA BLA BLA BLA BLA BLA BLA BLA BLA BLA BLA BLA BLA BLA BLA 
BLA BLA BLA BLA BLA BLA BLA BLA BLA BLA BLA BLA BLA BLA BLA BLA BLA BLA BLA BLA 
BLA BLA BLA BLA BLA BLA BLA BLA BLA BLA BLA BLA BLA BLA BLA BLA BLA BLA BLA BLA 
BLA BLA BLA BLA BLA BLA BLA BLA BLA BLA BLA BLA BLA BLA BLA BLA BLA BLA BLA BLA 
BLA BLA BLA BLA BLA BLA BLA BLA BLA BLA BLA BLA BLA BLA BLA BLA BLA BLA BLA BLA 
BLA BLA BLA BLA BLA BLA BLA BLA BLA BLA BLA BLA BLA BLA BLA BLA BLA BLA BLA BLA 
BLA BLA BLA BLA BLA BLA BLA BLA BLA BLA BLA BLA BLA BLA BLA BLA BLA BLA BLA BLA 
BLA BLA BLA BLA BLA BLA BLA BLA BLA BLA BLA BLA BLA BLA BLA BLA BLA BLA BLA BLA 
BLA BLA BLA BLA BLA BLA BLA BLA BLA BLA BLA BLA BLA BLA BLA BLA BLA BLA BLA BLA 
BLA BLA BLA BLA BLA BLA BLA BLA BLA BLA BLA BLA BLA BLA BLA BLA BLA BLA BLA BLA 
BLA BLA BLA BLA BLA BLA BLA BLA BLA BLA BLA BLA BLA BLA BLA BLA BLA BLA BLA BLA 
BLA BLA BLA BLA BLA BLA BLA BLA BLA BLA BLA BLA BLA BLA BLA BLA BLA BLA BLA BLA 
BLA BLA BLA BLA BLA BLA BLA BLA BLA BLA BLA BLA BLA BLA BLA BLA BLA BLA BLA BLA 
BLA BLA BLA BLA BLA BLA BLA BLA BLA BLA BLA BLA BLA BLA BLA BLA BLA BLA BLA BLA 
BLA BLA BLA BLA BLA BLA BLA BLA BLA BLA BLA BLA BLA BLA BLA BLA BLA BLA BLA BLA 
BLA BLA BLA BLA BLA BLA BLA BLA BLA BLA BLA BLA BLA BLA BLA BLA BLA BLA BLA BLA 
BLA BLA BLA BLA BLA BLA BLA BLA BLA BLA BLA BLA BLA BLA BLA BLA BLA BLA BLA BLA 
BLA BLA BLA BLA BLA BLA BLA BLA BLA BLA BLA BLA BLA BLA BLA BLA BLA BLA BLA BLA 
BLA BLA BLA BLA BLA BLA BLA BLA BLA BLA BLA BLA BLA BLA BLA BLA BLA BLA BLA BLA 
BLA BLA BLA BLA BLA BLA BLA BLA BLA BLA BLA BLA BLA BLA BLA BLA BLA BLA BLA BLA 
BLA BLA BLA BLA BLA BLA BLA BLA BLA BLA BLA BLA BLA BLA BLA BLA BLA BLA BLA BLA 
BLA BLA BLA BLA BLA BLA BLA BLA BLA BLA BLA BLA BLA BLA BLA BLA BLA BLA BLA BLA 
BLA BLA BLA BLA BLA BLA BLA BLA BLA BLA BLA BLA BLA BLA BLA BLA BLA BLA BLA BLA 
BLA BLA BLA BLA 
%FLAG JOIN_ARRAY                                                                
%FORMAT(10I8)                                                                   
       0       0       0       0       0       0       0       0       0       0
       0       0       0       0       0       0       0       0       0       0
       0       0       0       0       0       0       0       0       0       0
       0       0       0       0       0       0       0       0       0       0
       0       0       0       0       0       0       0       0       0       0
       0       0       0       0       0       0       0       0       0       0
       0       0       0       0       0       0       0       0       0       0
       0       0       0       0       0       0       0       0       0       0
       0       0       0       0       0       0       0       0       0       0
       0       0       0       0       0       0       0       0       0       0
       0       0       0       0       0       0       0       0       0       0
       0       0       0       0       0       0       0       0       0       0
       0       0       0       0       0       0       0       0       0       0
       0       0       0       0       0       0       0       0       0       0
       0       0       0       0       0       0       0       0       0       0
       0       0       0       0       0       0       0       0       0       0
       0       0       0       0       0       0       0       0       0       0
       0       0       0       0       0       0       0       0       0       0
       0       0       0       0       0       0       0       0       0       0
       0       0       0       0       0       0       0       0       0       0
       0       0       0       0       0       0       0       0       0       0
       0       0       0       0       0       0       0       0       0       0
       0       0       0       0       0       0       0       0       0       0
       0       0       0       0       0       0       0       0       0       0
       0       0       0       0       0       0       0       0       0       0
       0       0       0       0       0       0       0       0       0       0
       0       0       0       0       0       0       0       0       0       0
       0       0       0       0       0       0       0       0       0       0
       0       0       0       0       0       0       0       0       0       0
       0       0       0       0       0       0       0       0       0       0
       0       0       0       0       0       0       0       0       0       0
       0       0       0       0       0       0       0       0       0       0
       0       0       0       0       0       0       0       0       0       0
       0       0       0       0       0       0       0       0       0       0
       0       0       0       0       0       0       0       0       0       0
       0       0       0       0       0       0       0       0       0       0
       0       0       0       0       0       0       0       0       0       0
       0       0       0       0       0       0       0       0       0       0
       0       0       0       0       0       0       0       0       0       0
       0       0       0       0       0       0       0       0       0       0
       0       0       0       0       0       0       0       0       0       0
       0       0       0       0       0       0       0       0       0       0
       0       0       0       0       0       0       0       0       0       0
       0       0       0       0       0       0       0       0       0       0
       0       0       0       0       0       0       0       0       0       0
       0       0       0       0       0       0       0       0       0       0
       0       0       0       0       0       0       0       0       0       0
       0       0       0       0       0       0       0       0       0       0
       0       0       0       0       0       0       0       0       0       0
       0       0       0       0       0       0       0       0       0       0
       0       0       0       0       0       0       0       0       0       0
       0       0       0       0       0       0       0       0       0       0
       0       0       0       0       0       0       0       0       0       0
       0       0       0       0       0       0       0       0       0       0
       0       0       0       0       0       0       0       0       0       0
       0       0       0       0       0       0       0       0       0       0
       0       0       0       0       0       0       0       0       0       0
       0       0       0       0       0       0       0       0       0       0
       0       0       0       0       0       0       0       0       0       0
       0       0       0       0       0       0       0       0       0       0
       0       0       0       0       0       0       0       0       0       0
       0       0       0       0       0       0       0       0       0       0
       0       0       0       0       0       0       0       0       0       0
       0       0       0       0       0       0       0       0       0       0
       0       0       0       0       0       0       0       0       0       0
       0       0       0       0       0       0       0       0       0       0
       0       0       0       0       0       0       0       0       0       0
       0       0       0       0       0       0       0       0       0       0
       0       0       0       0       0       0       0       0       0       0
       0       0       0       0       0       0       0       0       0       0
       0       0       0       0       0       0       0       0       0       0
       0       0       0       0       0       0       0       0       0       0
       0       0       0       0       0       0       0       0       0       0
       0       0       0       0       0       0       0       0       0       0
       0       0       0       0       0       0       0       0       0       0
       0       0       0       0       0       0       0       0       0       0
       0       0       0       0       0       0       0       0       0       0
       0       0       0       0       0       0       0       0       0       0
       0       0       0       0       0       0       0       0       0       0
       0       0       0       0       0       0       0       0       0       0
       0       0       0       0       0       0       0       0       0       0
       0       0       0       0       0       0       0       0       0       0
       0       0       0       0       0       0       0       0       0       0
       0       0       0       0       0       0       0       0       0       0
       0       0       0       0       0       0       0       0       0       0
       0       0       0       0       0       0       0       0       0       0
       0       0       0       0       0       0       0       0       0       0
       0       0       0       0       0       0       0       0       0       0
       0       0       0       0       0       0       0       0       0       0
       0       0       0       0       0       0       0       0       0       0
       0       0       0       0       0       0       0       0       0       0
       0       0       0       0       0       0       0       0       0       0
       0       0       0       0       0       0       0       0       0       0
       0       0       0       0       0       0       0       0       0       0
       0       0       0       0       0       0       0       0       0       0
       0       0       0       0       0       0       0       0       0       0
       0       0       0       0       0       0       0       0       0       0
       0       0       0       0       0       0       0       0       0       0
       0       0       0       0       0       0       0       0       0       0
       0       0       0       0       0       0       0       0       0       0
       0       0       0       0       0       0       0       0       0       0
       0       0       0       0       0       0       0       0       0       0
       0       0       0       0       0       0       0       0       0       0
       0       0       0       0       0       0       0       0       0       0
       0       0       0       0       0       0       0       0       0       0
       0       0       0       0       0       0       0       0       0       0
       0       0       0       0       0       0       0       0       0       0
       0       0       0       0       0       0       0       0       0       0
       0       0       0       0       0       0       0       0       0       0
       0       0       0       0       0       0       0       0       0       0
       0       0       0       0       0       0       0       0       0       0
       0       0       0       0       0       0       0       0       0       0
       0       0       0       0       0       0       0       0       0       0
       0       0       0       0       0       0       0       0       0       0
       0       0       0       0       0       0       0       0       0       0
       0       0       0       0       0       0       0       0       0       0
       0       0       0       0       0       0       0       0       0       0
       0       0       0       0       0       0       0       0       0       0
       0       0       0       0       0       0       0       0       0       0
       0       0       0       0       0       0       0       0       0       0
       0       0       0       0       0       0       0       0       0       0
       0       0       0       0       0       0       0       0       0       0
       0       0       0       0       0       0       0       0       0       0
       0       0       0       0       0       0       0       0       0       0
       0       0       0       0       0       0       0       0       0       0
       0       0       0       0       0       0       0       0       0       0
       0       0       0       0       0       0       0       0       0       0
       0       0       0       0       0       0       0       0       0       0
       0       0       0       0       0       0       0       0       0       0
       0       0       0       0       0       0       0       0       0       0
       0       0       0       0       0       0       0       0       0       0
       0       0       0       0       0       0       0       0       0       0
       0       0       0       0       0       0       0       0       0       0
       0       0       0       0       0       0       0       0       0       0
       0       0       0       0       0       0       0       0       0       0
       0       0       0       0       0       0       0       0       0       0
       0       0       0       0       0       0       0       0       0       0
       0       0       0       0       0       0       0       0       0       0
       0       0       0       0       0       0       0       0       0       0
       0       0       0       0       0       0       0       0       0       0
       0       0       0       0       0       0       0       0       0       0
       0       0       0       0       0       0       0       0       0       0
       0       0       0       0       0       0       0       0       0       0
       0       0       0       0       0       0       0       0       0       0
       0       0       0       0       0       0       0       0       0       0
       0       0       0       0       0       0       0       0       0       0
       0       0       0       0       0       0       0       0       0       0
       0       0       0       0       0       0       0       0       0       0
       0       0       0       0       0       0       0       0       0       0
       0       0       0       0       0       0       0       0       0       0
       0       0       0       0       0       0       0       0       0       0
       0       0       0       0       0       0       0       0       0       0
       0       0       0       0       0       0       0       0       0       0
       0       0       0       0       0       0       0       0       0       0
       0       0       0       0       0       0       0       0       0       0
       0       0       0       0       0       0       0       0       0       0
       0       0       0       0       0       0       0       0       0       0
       0       0       0       0       0       0       0       0       0       0
       0       0       0       0       0       0       0       0       0       0
       0       0       0       0       0       0       0       0       0       0
       0       0       0       0       0       0       0       0       0       0
       0       0       0       0       0       0       0       0       0       0
       0       0       0       0       0       0       0       0       0       0
       0       0       0       0       0       0       0       0       0       0
       0       0       0       0       0       0       0       0       0       0
       0       0       0       0       0       0       0       0       0       0
       0       0       0       0       0       0       0       0       0       0
       0       0       0       0       0       0       0       0       0       0
       0       0       0       0       0       0       0       0       0       0
       0       0       0       0       0       0       0       0       0       0
       0       0       0       0       0       0       0       0       0       0
       0       0       0       0       0       0       0       0       0       0
       0       0       0       0       0       0       0       0       0       0
       0       0       0       0       0       0       0       0       0       0
       0       0       0       0       0       0       0       0       0       0
       0       0       0       0       0       0       0       0       0       0
       0       0       0       0       0       0       0       0       0       0
       0       0       0       0       0       0       0       0       0       0
       0       0       0       0       0       0       0       0       0       0
       0       0       0       0       0       0       0       0       0       0
       0       0       0       0       0       0       0       0       0       0
       0       0       0       0       0       0       0       0       0       0
       0       0       0       0       0       0       0       0       0       0
       0       0       0       0       0       0       0       0       0       0
       0       0       0       0
%FLAG IROTAT                                                                    
%FORMAT(10I8)                                                                   
       0       0       0       0       0       0       0       0       0       0
       0       0       0       0       0       0       0       0       0       0
       0       0       0       0       0       0       0       0       0       0
       0       0       0       0       0       0       0       0       0       0
       0       0       0       0       0       0       0       0       0       0
       0       0       0       0       0       0       0       0       0       0
       0       0       0       0       0       0       0       0       0       0
       0       0       0       0       0       0       0       0       0       0
       0       0       0       0       0       0       0       0       0       0
       0       0       0       0       0       0       0       0       0       0
       0       0       0       0       0       0       0       0       0       0
       0       0       0       0       0       0       0       0       0       0
       0       0       0       0       0       0       0       0       0       0
       0       0       0       0       0       0       0       0       0       0
       0       0       0       0       0       0       0       0       0       0
       0       0       0       0       0       0       0       0       0       0
       0       0       0       0       0       0       0       0       0       0
       0       0       0       0       0       0       0       0       0       0
       0       0       0       0       0       0       0       0       0       0
       0       0       0       0       0       0       0       0       0       0
       0       0       0       0       0       0       0       0       0       0
       0       0       0       0       0       0       0       0       0       0
       0       0       0       0       0       0       0       0       0       0
       0       0       0       0       0       0       0       0       0       0
       0       0       0       0       0       0       0       0       0       0
       0       0       0       0       0       0       0       0       0       0
       0       0       0       0       0       0       0       0       0       0
       0       0       0       0       0       0       0       0       0       0
       0       0       0       0       0       0       0       0       0       0
       0       0       0       0       0       0       0       0       0       0
       0       0       0       0       0       0       0       0       0       0
       0       0       0       0       0       0       0       0       0       0
       0       0       0       0       0       0       0       0       0       0
       0       0       0       0       0       0       0       0       0       0
       0       0       0       0       0       0       0       0       0       0
       0       0       0       0       0       0       0       0       0       0
       0       0       0       0       0       0       0       0       0       0
       0       0       0       0       0       0       0       0       0       0
       0       0       0       0       0       0       0       0       0       0
       0       0       0       0       0       0       0       0       0       0
       0       0       0       0       0       0       0       0       0       0
       0       0       0       0       0       0       0       0       0       0
       0       0       0       0       0       0       0       0       0       0
       0       0       0       0       0       0       0       0       0       0
       0       0       0       0       0       0       0       0       0       0
       0       0       0       0       0       0       0       0       0       0
       0       0       0       0       0       0       0       0       0       0
       0       0       0       0       0       0       0       0       0       0
       0       0       0       0       0       0       0       0       0       0
       0       0       0       0       0       0       0       0       0       0
       0       0       0       0       0       0       0       0       0       0
       0       0       0       0       0       0       0       0       0       0
       0       0       0       0       0       0       0       0       0       0
       0       0       0       0       0       0       0       0       0       0
       0       0       0       0       0       0       0       0       0       0
       0       0       0       0       0       0       0       0       0       0
       0       0       0       0       0       0       0       0       0       0
       0       0       0       0       0       0       0       0       0       0
       0       0       0       0       0       0       0       0       0       0
       0       0       0       0       0       0       0       0       0       0
       0       0       0       0       0       0       0       0       0       0
       0       0       0       0       0       0       0       0       0       0
       0       0       0       0       0       0       0       0       0       0
       0       0       0       0       0       0       0       0       0       0
       0       0       0       0       0       0       0       0       0       0
       0       0       0       0       0       0       0       0       0       0
       0       0       0       0       0       0       0       0       0       0
       0       0       0       0       0       0       0       0       0       0
       0       0       0       0       0       0       0       0       0       0
       0       0       0       0       0       0       0       0       0       0
       0       0       0       0       0       0       0       0       0       0
       0       0       0       0       0       0       0       0       0       0
       0       0       0       0       0       0       0       0       0       0
       0       0       0       0       0       0       0       0       0       0
       0       0       0       0       0       0       0       0       0       0
       0       0       0       0       0       0       0       0       0       0
       0       0       0       0       0       0       0       0       0       0
       0       0       0       0       0       0       0       0       0       0
       0       0       0       0       0       0       0       0       0       0
       0       0       0       0       0       0       0       0       0       0
       0       0       0       0       0       0       0       0       0       0
       0       0       0       0       0       0       0       0       0       0
       0       0       0       0       0       0       0       0       0       0
       0       0       0       0       0       0       0       0       0       0
       0       0       0       0       0       0       0       0       0       0
       0       0       0       0       0       0       0       0       0       0
       0       0       0       0       0       0       0       0       0       0
       0       0       0       0       0       0       0       0       0       0
       0       0       0       0       0       0       0       0       0       0
       0       0       0       0       0       0       0       0       0       0
       0       0       0       0       0       0       0       0       0       0
       0       0       0       0       0       0       0       0       0       0
       0       0       0       0       0       0       0       0       0       0
       0       0       0       0       0       0       0       0       0       0
       0       0       0       0       0       0       0       0       0       0
       0       0       0       0       0       0       0       0       0       0
       0       0       0       0       0       0       0       0       0       0
       0       0       0       0       0       0       0       0       0       0
       0       0       0       0       0       0       0       0       0       0
       0       0       0       0       0       0       0       0       0       0
       0       0       0       0       0       0       0       0       0       0
       0       0       0       0       0       0       0       0       0       0
       0       0       0       0       0       0       0       0       0       0
       0       0       0       0       0       0       0       0       0       0
       0       0       0       0       0       0       0       0       0       0
       0       0       0       0       0       0       0       0       0       0
       0       0       0       0       0       0       0       0       0       0
       0       0       0       0       0       0       0       0       0       0
       0       0       0       0       0       0       0       0       0       0
       0       0       0       0       0       0       0       0       0       0
       0       0       0       0       0       0       0       0       0       0
       0       0       0       0       0       0       0       0       0       0
       0       0       0       0       0       0       0       0       0       0
       0       0       0       0       0       0       0       0       0       0
       0       0       0       0       0       0       0       0       0       0
       0       0       0       0       0       0       0       0       0       0
       0       0       0       0       0       0       0       0       0       0
       0       0       0       0       0       0       0       0       0       0
       0       0       0       0       0       0       0       0       0       0
       0       0       0       0       0       0       0       0       0       0
       0       0       0       0       0       0       0       0       0       0
       0       0       0       0       0       0       0       0       0       0
       0       0       0       0       0       0       0       0       0       0
       0       0       0       0       0       0       0       0       0       0
       0       0       0       0       0       0       0       0       0       0
       0       0       0       0       0       0       0       0       0       0
       0       0       0       0       0       0       0       0       0       0
       0       0       0       0       0       0       0       0       0       0
       0       0       0       0       0       0       0       0       0       0
       0       0       0       0       0       0       0       0       0       0
       0       0       0       0       0       0       0       0       0       0
       0       0       0       0       0       0       0       0       0       0
       0       0       0       0       0       0       0       0       0       0
       0       0       0       0       0       0       0       0       0       0
       0       0       0       0       0       0       0       0       0       0
       0       0       0       0       0       0       0       0       0       0
       0       0       0       0       0       0       0       0       0       0
       0       0       0       0       0       0       0       0       0       0
       0       0       0       0       0       0       0       0       0       0
       0       0       0       0       0       0       0       0       0       0
       0       0       0       0       0       0       0       0       0       0
       0       0       0       0       0       0       0       0       0       0
       0       0       0       0       0       0       0       0       0       0
       0       0       0       0       0       0       0       0       0       0
       0       0       0       0       0       0       0       0       0       0
       0       0       0       0       0       0       0       0       0       0
       0       0       0       0       0       0       0       0       0       0
       0       0       0       0       0       0       0       0       0       0
       0       0       0       0       0       0       0       0       0       0
       0       0       0       0       0       0       0       0       0       0
       0       0       0       0       0       0       0       0       0       0
       0       0       0       0       0       0       0       0       0       0
       0       0       0       0       0       0       0       0       0       0
       0       0       0       0       0       0       0       0       0       0
       0       0       0       0       0       0       0       0       0       0
       0       0       0       0       0       0       0       0       0       0
       0       0       0       0       0       0       0       0       0       0
       0       0       0       0       0       0       0       0       0       0
       0       0       0       0       0       0       0       0       0       0
       0       0       0       0       0       0       0       0       0       0
       0       0       0       0       0       0       0       0       0       0
       0       0       0       0       0       0       0       0       0       0
       0       0       0       0       0       0       0       0       0       0
       0       0       0       0       0       0       0       0       0       0
       0       0       0       0       0       0       0       0       0       0
       0       0       0       0       0       0       0       0       0       0
       0       0       0       0       0       0       0       0       0       0
       0       0       0       0       0       0       0       0       0       0
       0       0       0       0       0       0       0       0       0       0
       0       0       0       0       0       0       0       0       0       0
       0       0       0       0       0       0       0       0       0       0
       0       0       0       0       0       0       0       0       0       0
       0       0       0       0       0       0       0       0       0       0
       0       0       0       0       0       0       0       0       0       0
       0       0       0       0       0       0       0       0       0       0
       0       0       0       0       0       0       0       0       0       0
       0       0       0       0       0       0       0       0       0       0
       0       0       0       0       0       0       0       0       0       0
       0       0       0       0       0       0       0       0       0       0
       0       0       0       0       0       0       0       0       0       0
       0       0       0       0       0       0       0       0       0       0
       0       0       0       0       0       0       0       0       0       0
       0       0       0       0       0       0       0       0       0       0
       0       0       0       0       0       0       0       0       0       0
       0       0       0       0
%FLAG SOLVENT_POINTERS                                                          
%FORMAT(3I8)                                                                    
       8     620       9
%FLAG ATOMS_PER_MOLECULE                                                        
%FORMAT(10I8)                                                                   
       1       1       1       1       1       1       1       1       3       3
       3       3       3       3       3       3       3       3       3       3
       3       3       3       3       3       3       3       3       3       3
       3       3       3       3       3       3       3       3       3       3
       3       3       3       3       3       3       3       3       3       3
       3       3       3       3       3       3       3       3       3       3
       3       3       3       3       3       3       3       3       3       3
       3       3       3       3       3       3       3       3       3       3
       3       3       3       3       3       3       3       3       3       3
       3       3       3       3       3       3       3       3       3       3
       3       3       3       3       3       3       3       3       3       3
       3       3       3       3       3       3       3       3       3       3
       3       3       3       3       3       3       3       3       3       3
       3       3       3       3       3       3       3       3       3       3
       3       3       3       3       3       3       3       3       3       3
       3       3       3       3       3       3       3       3       3       3
       3       3       3       3       3       3       3       3       3       3
       3       3       3       3       3       3       3       3       3       3
       3       3       3       3       3       3       3       3       3       3
       3       3       3       3       3       3       3       3       3       3
       3       3       3       3       3       3       3       3       3       3
       3       3       3       3       3       3       3       3       3       3
       3       3       3       3       3       3       3       3       3       3
       3       3       3       3       3       3       3       3       3       3
       3       3       3       3       3       3       3       3       3       3
       3       3       3       3       3       3       3       3       3       3
       3       3       3       3       3       3       3       3       3       3
       3       3       3       3       3       3       3       3       3       3
       3       3       3       3       3       3       3       3       3       3
       3       3       3       3       3       3       3       3       3       3
       3       3       3       3       3       3       3       3       3       3
       3       3       3       3       3       3       3       3       3       3
       3       3       3       3       3       3       3       3       3       3
       3       3       3       3       3       3       3       3       3       3
       3       3       3       3       3       3       3       3       3       3
       3       3       3       3       3       3       3       3       3       3
       3       3       3       3       3       3       3       3       3       3
       3       3       3       3       3       3       3       3       3       3
       3       3       3       3       3       3       3       3       3       3
       3       3       3       3       3       3       3       3       3       3
       3       3       3       3       3       3       3       3       3       3
       3       3       3       3       3       3       3       3       3       3
       3       3       3       3       3       3       3       3       3       3
       3       3       3       3       3       3       3       3       3       3
       3       3       3       3       3       3       3       3       3       3
       3       3       3       3       3       3       3       3       3       3
       3       3       3       3       3       3       3       3       3       3
       3       3       3       3       3       3       3       3       3       3
       3       3       3       3       3       3       3       3       3       3
       3       3       3       3       3       3       3       3       3       3
       3       3       3       3       3       3       3       3       3       3
       3       3       3       3       3       3       3       3       3       3
       3       3       3       3       3       3       3       3       3       3
       3       3       3       3       3       3       3       3       3       3
       3       3       3       3       3       3       3       3       3       3
       3       3       3       3       3       3       3       3       3       3
       3       3       3       3       3       3       3       3       3       3
       3       3       3       3       3       3       3       3       3       3
       3       3       3       3       3       3       3       3       3       3
       3       3       3       3       3       3       3       3       3       3
       3       3       3       3       3       3       3       3       3       3
       3       3       3       3       3       3       3       3       3       3
%FLAG BOX_DIMENSIONS                                                            
%FORMAT(5E16.8)                                                                 
  9.00000000E+01  3.09751780E+01  3.08599250E+01  3.02756520E+01
%FLAG RADIUS_SET                                                                
%FORMAT(1a80)                                                                   
modified Bondi radii (mbondi)                                                   
%FLAG RADII                                                                     
%FORMAT(5E16.8)                                                                 
  1.50000000E+00  1.50000000E+00  1.50000000E+00  1.50000000E+00  1.70000000E+00
  1.70000000E+00  1.70000000E+00  1.70000000E+00  1.50000000E+00  8.00000000E-01
  8.00000000E-01  1.50000000E+00  8.00000000E-01  8.00000000E-01  1.50000000E+00
  8.00000000E-01  8.00000000E-01  1.50000000E+00  8.00000000E-01  8.00000000E-01
  1.50000000E+00  8.00000000E-01  8.00000000E-01  1.50000000E+00  8.00000000E-01
  8.00000000E-01  1.50000000E+00  8.00000000E-01  8.00000000E-01  1.50000000E+00
  8.00000000E-01  8.00000000E-01  1.50000000E+00  8.00000000E-01  8.00000000E-01
  1.50000000E+00  8.00000000E-01  8.00000000E-01  1.50000000E+00  8.00000000E-01
  8.00000000E-01  1.50000000E+00  8.00000000E-01  8.00000000E-01  1.50000000E+00
  8.00000000E-01  8.00000000E-01  1.50000000E+00  8.00000000E-01  8.00000000E-01
  1.50000000E+00  8.00000000E-01  8.00000000E-01  1.50000000E+00  8.00000000E-01
  8.00000000E-01  1.50000000E+00  8.00000000E-01  8.00000000E-01  1.50000000E+00
  8.00000000E-01  8.00000000E-01  1.50000000E+00  8.00000000E-01  8.00000000E-01
  1.50000000E+00  8.00000000E-01  8.00000000E-01  1.50000000E+00  8.00000000E-01
  8.00000000E-01  1.50000000E+00  8.00000000E-01  8.00000000E-01  1.50000000E+00
  8.00000000E-01  8.00000000E-01  1.50000000E+00  8.00000000E-01  8.00000000E-01
  1.50000000E+00  8.00000000E-01  8.00000000E-01  1.50000000E+00  8.00000000E-01
  8.00000000E-01  1.50000000E+00  8.00000000E-01  8.00000000E-01  1.50000000E+00
  8.00000000E-01  8.00000000E-01  1.50000000E+00  8.00000000E-01  8.00000000E-01
  1.50000000E+00  8.00000000E-01  8.00000000E-01  1.50000000E+00  8.00000000E-01
  8.00000000E-01  1.50000000E+00  8.00000000E-01  8.00000000E-01  1.50000000E+00
  8.00000000E-01  8.00000000E-01  1.50000000E+00  8.00000000E-01  8.00000000E-01
  1.50000000E+00  8.00000000E-01  8.00000000E-01  1.50000000E+00  8.00000000E-01
  8.00000000E-01  1.50000000E+00  8.00000000E-01  8.00000000E-01  1.50000000E+00
  8.00000000E-01  8.00000000E-01  1.50000000E+00  8.00000000E-01  8.00000000E-01
  1.50000000E+00  8.00000000E-01  8.00000000E-01  1.50000000E+00  8.00000000E-01
  8.00000000E-01  1.50000000E+00  8.00000000E-01  8.00000000E-01  1.50000000E+00
  8.00000000E-01  8.00000000E-01  1.50000000E+00  8.00000000E-01  8.00000000E-01
  1.50000000E+00  8.00000000E-01  8.00000000E-01  1.50000000E+00  8.00000000E-01
  8.00000000E-01  1.50000000E+00  8.00000000E-01  8.00000000E-01  1.50000000E+00
  8.00000000E-01  8.00000000E-01  1.50000000E+00  8.00000000E-01  8.00000000E-01
  1.50000000E+00  8.00000000E-01  8.00000000E-01  1.50000000E+00  8.00000000E-01
  8.00000000E-01  1.50000000E+00  8.00000000E-01  8.00000000E-01  1.50000000E+00
  8.00000000E-01  8.00000000E-01  1.50000000E+00  8.00000000E-01  8.00000000E-01
  1.50000000E+00  8.00000000E-01  8.00000000E-01  1.50000000E+00  8.00000000E-01
  8.00000000E-01  1.50000000E+00  8.00000000E-01  8.00000000E-01  1.50000000E+00
  8.00000000E-01  8.00000000E-01  1.50000000E+00  8.00000000E-01  8.00000000E-01
  1.50000000E+00  8.00000000E-01  8.00000000E-01  1.50000000E+00  8.00000000E-01
  8.00000000E-01  1.50000000E+00  8.00000000E-01  8.00000000E-01  1.50000000E+00
  8.00000000E-01  8.00000000E-01  1.50000000E+00  8.00000000E-01  8.00000000E-01
  1.50000000E+00  8.00000000E-01  8.00000000E-01  1.50000000E+00  8.00000000E-01
  8.00000000E-01  1.50000000E+00  8.00000000E-01  8.00000000E-01  1.50000000E+00
  8.00000000E-01  8.00000000E-01  1.50000000E+00  8.00000000E-01  8.00000000E-01
  1.50000000E+00  8.00000000E-01  8.00000000E-01  1.50000000E+00  8.00000000E-01
  8.00000000E-01  1.50000000E+00  8.00000000E-01  8.00000000E-01  1.50000000E+00
  8.00000000E-01  8.00000000E-01  1.50000000E+00  8.00000000E-01  8.00000000E-01
  1.50000000E+00  8.00000000E-01  8.00000000E-01  1.50000000E+00  8.00000000E-01
  8.00000000E-01  1.50000000E+00  8.00000000E-01  8.00000000E-01  1.50000000E+00
  8.00000000E-01  8.00000000E-01  1.50000000E+00  8.00000000E-01  8.00000000E-01
  1.50000000E+00  8.00000000E-01  8.00000000E-01  1.50000000E+00  8.00000000E-01
  8.00000000E-01  1.50000000E+00  8.00000000E-01  8.00000000E-01  1.50000000E+00
  8.00000000E-01  8.00000000E-01  1.50000000E+00  8.00000000E-01  8.00000000E-01
  1.50000000E+00  8.00000000E-01  8.00000000E-01  1.50000000E+00  8.00000000E-01
  8.00000000E-01  1.50000000E+00  8.00000000E-01  8.00000000E-01  1.50000000E+00
  8.00000000E-01  8.00000000E-01  1.50000000E+00  8.00000000E-01  8.00000000E-01
  1.50000000E+00  8.00000000E-01  8.00000000E-01  1.50000000E+00  8.00000000E-01
  8.00000000E-01  1.50000000E+00  8.00000000E-01  8.00000000E-01  1.50000000E+00
  8.00000000E-01  8.00000000E-01  1.50000000E+00  8.00000000E-01  8.00000000E-01
  1.50000000E+00  8.00000000E-01  8.00000000E-01  1.50000000E+00  8.00000000E-01
  8.00000000E-01  1.50000000E+00  8.00000000E-01  8.00000000E-01  1.50000000E+00
  8.00000000E-01  8.00000000E-01  1.50000000E+00  8.00000000E-01  8.00000000E-01
  1.50000000E+00  8.00000000E-01  8.00000000E-01  1.50000000E+00  8.00000000E-01
  8.00000000E-01  1.50000000E+00  8.00000000E-01  8.00000000E-01  1.50000000E+00
  8.00000000E-01  8.00000000E-01  1.50000000E+00  8.00000000E-01  8.00000000E-01
  1.50000000E+00  8.00000000E-01  8.00000000E-01  1.50000000E+00  8.00000000E-01
  8.00000000E-01  1.50000000E+00  8.00000000E-01  8.00000000E-01  1.50000000E+00
  8.00000000E-01  8.00000000E-01  1.50000000E+00  8.00000000E-01  8.00000000E-01
  1.50000000E+00  8.00000000E-01  8.00000000E-01  1.50000000E+00  8.00000000E-01
  8.00000000E-01  1.50000000E+00  8.00000000E-01  8.00000000E-01  1.50000000E+00
  8.00000000E-01  8.00000000E-01  1.50000000E+00  8.00000000E-01  8.00000000E-01
  1.50000000E+00  8.00000000E-01  8.00000000E-01  1.50000000E+00  8.00000000E-01
  8.00000000E-01  1.50000000E+00  8.00000000E-01  8.00000000E-01  1.50000000E+00
  8.00000000E-01  8.00000000E-01  1.50000000E+00  8.00000000E-01  8.00000000E-01
  1.50000000E+00  8.00000000E-01  8.00000000E-01  1.50000000E+00  8.00000000E-01
  8.00000000E-01  1.50000000E+00  8.00000000E-01  8.00000000E-01  1.50000000E+00
  8.00000000E-01  8.00000000E-01  1.50000000E+00  8.00000000E-01  8.00000000E-01
  1.50000000E+00  8.00000000E-01  8.00000000E-01  1.50000000E+00  8.00000000E-01
  8.00000000E-01  1.50000000E+00  8.00000000E-01  8.00000000E-01  1.50000000E+00
  8.00000000E-01  8.00000000E-01  1.50000000E+00  8.00000000E-01  8.00000000E-01
  1.50000000E+00  8.00000000E-01  8.00000000E-01  1.50000000E+00  8.00000000E-01
  8.00000000E-01  1.50000000E+00  8.00000000E-01  8.00000000E-01  1.50000000E+00
  8.00000000E-01  8.00000000E-01  1.50000000E+00  8.00000000E-01  8.00000000E-01
  1.50000000E+00  8.00000000E-01  8.00000000E-01  1.50000000E+00  8.00000000E-01
  8.00000000E-01  1.50000000E+00  8.00000000E-01  8.00000000E-01  1.50000000E+00
  8.00000000E-01  8.00000000E-01  1.50000000E+00  8.00000000E-01  8.00000000E-01
  1.50000000E+00  8.00000000E-01  8.00000000E-01  1.50000000E+00  8.00000000E-01
  8.00000000E-01  1.50000000E+00  8.00000000E-01  8.00000000E-01  1.50000000E+00
  8.00000000E-01  8.00000000E-01  1.50000000E+00  8.00000000E-01  8.00000000E-01
  1.50000000E+00  8.00000000E-01  8.00000000E-01  1.50000000E+00  8.00000000E-01
  8.00000000E-01  1.50000000E+00  8.00000000E-01  8.00000000E-01  1.50000000E+00
  8.00000000E-01  8.00000000E-01  1.50000000E+00  8.00000000E-01  8.00000000E-01
  1.50000000E+00  8.00000000E-01  8.00000000E-01  1.50000000E+00  8.00000000E-01
  8.00000000E-01  1.50000000E+00  8.00000000E-01  8.00000000E-01  1.50000000E+00
  8.00000000E-01  8.00000000E-01  1.50000000E+00  8.00000000E-01  8.00000000E-01
  1.50000000E+00  8.00000000E-01  8.00000000E-01  1.50000000E+00  8.00000000E-01
  8.00000000E-01  1.50000000E+00  8.00000000E-01  8.00000000E-01  1.50000000E+00
  8.00000000E-01  8.00000000E-01  1.50000000E+00  8.00000000E-01  8.00000000E-01
  1.50000000E+00  8.00000000E-01  8.00000000E-01  1.50000000E+00  8.00000000E-01
  8.00000000E-01  1.50000000E+00  8.00000000E-01  8.00000000E-01  1.50000000E+00
  8.00000000E-01  8.00000000E-01  1.50000000E+00  8.00000000E-01  8.00000000E-01
  1.50000000E+00  8.00000000E-01  8.00000000E-01  1.50000000E+00  8.00000000E-01
  8.00000000E-01  1.50000000E+00  8.00000000E-01  8.00000000E-01  1.50000000E+00
  8.00000000E-01  8.00000000E-01  1.50000000E+00  8.00000000E-01  8.00000000E-01
  1.50000000E+00  8.00000000E-01  8.00000000E-01  1.50000000E+00  8.00000000E-01
  8.00000000E-01  1.50000000E+00  8.00000000E-01  8.00000000E-01  1.50000000E+00
  8.00000000E-01  8.00000000E-01  1.50000000E+00  8.00000000E-01  8.00000000E-01
  1.50000000E+00  8.00000000E-01  8.00000000E-01  1.50000000E+00  8.00000000E-01
  8.00000000E-01  1.50000000E+00  8.00000000E-01  8.00000000E-01  1.50000000E+00
  8.00000000E-01  8.00000000E-01  1.50000000E+00  8.00000000E-01  8.00000000E-01
  1.50000000E+00  8.00000000E-01  8.00000000E-01  1.50000000E+00  8.00000000E-01
  8.00000000E-01  1.50000000E+00  8.00000000E-01  8.00000000E-01  1.50000000E+00
  8.00000000E-01  8.00000000E-01  1.50000000E+00  8.00000000E-01  8.00000000E-01
  1.50000000E+00  8.00000000E-01  8.00000000E-01  1.50000000E+00  8.00000000E-01
  8.00000000E-01  1.50000000E+00  8.00000000E-01  8.00000000E-01  1.50000000E+00
  8.00000000E-01  8.00000000E-01  1.50000000E+00  8.00000000E-01  8.00000000E-01
  1.50000000E+00  8.00000000E-01  8.00000000E-01  1.50000000E+00  8.00000000E-01
  8.00000000E-01  1.50000000E+00  8.00000000E-01  8.00000000E-01  1.50000000E+00
  8.00000000E-01  8.00000000E-01  1.50000000E+00  8.00000000E-01  8.00000000E-01
  1.50000000E+00  8.00000000E-01  8.00000000E-01  1.50000000E+00  8.00000000E-01
  8.00000000E-01  1.50000000E+00  8.00000000E-01  8.00000000E-01  1.50000000E+00
  8.00000000E-01  8.00000000E-01  1.50000000E+00  8.00000000E-01  8.00000000E-01
  1.50000000E+00  8.00000000E-01  8.00000000E-01  1.50000000E+00  8.00000000E-01
  8.00000000E-01  1.50000000E+00  8.00000000E-01  8.00000000E-01  1.50000000E+00
  8.00000000E-01  8.00000000E-01  1.50000000E+00  8.00000000E-01  8.00000000E-01
  1.50000000E+00  8.00000000E-01  8.00000000E-01  1.50000000E+00  8.00000000E-01
  8.00000000E-01  1.50000000E+00  8.00000000E-01  8.00000000E-01  1.50000000E+00
  8.00000000E-01  8.00000000E-01  1.50000000E+00  8.00000000E-01  8.00000000E-01
  1.50000000E+00  8.00000000E-01  8.00000000E-01  1.50000000E+00  8.00000000E-01
  8.00000000E-01  1.50000000E+00  8.00000000E-01  8.00000000E-01  1.50000000E+00
  8.00000000E-01  8.00000000E-01  1.50000000E+00  8.00000000E-01  8.00000000E-01
  1.50000000E+00  8.00000000E-01  8.00000000E-01  1.50000000E+00  8.00000000E-01
  8.00000000E-01  1.50000000E+00  8.00000000E-01  8.00000000E-01  1.50000000E+00
  8.00000000E-01  8.00000000E-01  1.50000000E+00  8.00000000E-01  8.00000000E-01
  1.50000000E+00  8.00000000E-01  8.00000000E-01  1.50000000E+00  8.00000000E-01
  8.00000000E-01  1.50000000E+00  8.00000000E-01  8.00000000E-01  1.50000000E+00
  8.00000000E-01  8.00000000E-01  1.50000000E+00  8.00000000E-01  8.00000000E-01
  1.50000000E+00  8.00000000E-01  8.00000000E-01  1.50000000E+00  8.00000000E-01
  8.00000000E-01  1.50000000E+00  8.00000000E-01  8.00000000E-01  1.50000000E+00
  8.00000000E-01  8.00000000E-01  1.50000000E+00  8.00000000E-01  8.00000000E-01
  1.50000000E+00  8.00000000E-01  8.00000000E-01  1.50000000E+00  8.00000000E-01
  8.00000000E-01  1.50000000E+00  8.00000000E-01  8.00000000E-01  1.50000000E+00
  8.00000000E-01  8.00000000E-01  1.50000000E+00  8.00000000E-01  8.00000000E-01
  1.50000000E+00  8.00000000E-01  8.00000000E-01  1.50000000E+00  8.00000000E-01
  8.00000000E-01  1.50000000E+00  8.00000000E-01  8.00000000E-01  1.50000000E+00
  8.00000000E-01  8.00000000E-01  1.50000000E+00  8.00000000E-01  8.00000000E-01
  1.50000000E+00  8.00000000E-01  8.00000000E-01  1.50000000E+00  8.00000000E-01
  8.00000000E-01  1.50000000E+00  8.00000000E-01  8.00000000E-01  1.50000000E+00
  8.00000000E-01  8.00000000E-01  1.50000000E+00  8.00000000E-01  8.00000000E-01
  1.50000000E+00  8.00000000E-01  8.00000000E-01  1.50000000E+00  8.00000000E-01
  8.00000000E-01  1.50000000E+00  8.00000000E-01  8.00000000E-01  1.50000000E+00
  8.00000000E-01  8.00000000E-01  1.50000000E+00  8.00000000E-01  8.00000000E-01
  1.50000000E+00  8.00000000E-01  8.00000000E-01  1.50000000E+00  8.00000000E-01
  8.00000000E-01  1.50000000E+00  8.00000000E-01  8.00000000E-01  1.50000000E+00
  8.00000000E-01  8.00000000E-01  1.50000000E+00  8.00000000E-01  8.00000000E-01
  1.50000000E+00  8.00000000E-01  8.00000000E-01  1.50000000E+00  8.00000000E-01
  8.00000000E-01  1.50000000E+00  8.00000000E-01  8.00000000E-01  1.50000000E+00
  8.00000000E-01  8.00000000E-01  1.50000000E+00  8.00000000E-01  8.00000000E-01
  1.50000000E+00  8.00000000E-01  8.00000000E-01  1.50000000E+00  8.00000000E-01
  8.00000000E-01  1.50000000E+00  8.00000000E-01  8.00000000E-01  1.50000000E+00
  8.00000000E-01  8.00000000E-01  1.50000000E+00  8.00000000E-01  8.00000000E-01
  1.50000000E+00  8.00000000E-01  8.00000000E-01  1.50000000E+00  8.00000000E-01
  8.00000000E-01  1.50000000E+00  8.00000000E-01  8.00000000E-01  1.50000000E+00
  8.00000000E-01  8.00000000E-01  1.50000000E+00  8.00000000E-01  8.00000000E-01
  1.50000000E+00  8.00000000E-01  8.00000000E-01  1.50000000E+00  8.00000000E-01
  8.00000000E-01  1.50000000E+00  8.00000000E-01  8.00000000E-01  1.50000000E+00
  8.00000000E-01  8.00000000E-01  1.50000000E+00  8.00000000E-01  8.00000000E-01
  1.50000000E+00  8.00000000E-01  8.00000000E-01  1.50000000E+00  8.00000000E-01
  8.00000000E-01  1.50000000E+00  8.00000000E-01  8.00000000E-01  1.50000000E+00
  8.00000000E-01  8.00000000E-01  1.50000000E+00  8.00000000E-01  8.00000000E-01
  1.50000000E+00  8.00000000E-01  8.00000000E-01  1.50000000E+00  8.00000000E-01
  8.00000000E-01  1.50000000E+00  8.00000000E-01  8.00000000E-01  1.50000000E+00
  8.00000000E-01  8.00000000E-01  1.50000000E+00  8.00000000E-01  8.00000000E-01
  1.50000000E+00  8.00000000E-01  8.00000000E-01  1.50000000E+00  8.00000000E-01
  8.00000000E-01  1.50000000E+00  8.00000000E-01  8.00000000E-01  1.50000000E+00
  8.00000000E-01  8.00000000E-01  1.50000000E+00  8.00000000E-01  8.00000000E-01
  1.50000000E+00  8.00000000E-01  8.00000000E-01  1.50000000E+00  8.00000000E-01
  8.00000000E-01  1.50000000E+00  8.00000000E-01  8.00000000E-01  1.50000000E+00
  8.00000000E-01  8.00000000E-01  1.50000000E+00  8.00000000E-01  8.00000000E-01
  1.50000000E+00  8.00000000E-01  8.00000000E-01  1.50000000E+00  8.00000000E-01
  8.00000000E-01  1.50000000E+00  8.00000000E-01  8.00000000E-01  1.50000000E+00
  8.00000000E-01  8.00000000E-01  1.50000000E+00  8.00000000E-01  8.00000000E-01
  1.50000000E+00  8.00000000E-01  8.00000000E-01  1.50000000E+00  8.00000000E-01
  8.00000000E-01  1.50000000E+00  8.00000000E-01  8.00000000E-01  1.50000000E+00
  8.00000000E-01  8.00000000E-01  1.50000000E+00  8.00000000E-01  8.00000000E-01
  1.50000000E+00  8.00000000E-01  8.00000000E-01  1.50000000E+00  8.00000000E-01
  8.00000000E-01  1.50000000E+00  8.00000000E-01  8.00000000E-01  1.50000000E+00
  8.00000000E-01  8.00000000E-01  1.50000000E+00  8.00000000E-01  8.00000000E-01
  1.50000000E+00  8.00000000E-01  8.00000000E-01  1.50000000E+00  8.00000000E-01
  8.00000000E-01  1.50000000E+00  8.00000000E-01  8.00000000E-01  1.50000000E+00
  8.00000000E-01  8.00000000E-01  1.50000000E+00  8.00000000E-01  8.00000000E-01
  1.50000000E+00  8.00000000E-01  8.00000000E-01  1.50000000E+00  8.00000000E-01
  8.00000000E-01  1.50000000E+00  8.00000000E-01  8.00000000E-01  1.50000000E+00
  8.00000000E-01  8.00000000E-01  1.50000000E+00  8.00000000E-01  8.00000000E-01
  1.50000000E+00  8.00000000E-01  8.00000000E-01  1.50000000E+00  8.00000000E-01
  8.00000000E-01  1.50000000E+00  8.00000000E-01  8.00000000E-01  1.50000000E+00
  8.00000000E-01  8.00000000E-01  1.50000000E+00  8.00000000E-01  8.00000000E-01
  1.50000000E+00  8.00000000E-01  8.00000000E-01  1.50000000E+00  8.00000000E-01
  8.00000000E-01  1.50000000E+00  8.00000000E-01  8.00000000E-01  1.50000000E+00
  8.00000000E-01  8.00000000E-01  1.50000000E+00  8.00000000E-01  8.00000000E-01
  1.50000000E+00  8.00000000E-01  8.00000000E-01  1.50000000E+00  8.00000000E-01
  8.00000000E-01  1.50000000E+00  8.00000000E-01  8.00000000E-01  1.50000000E+00
  8.00000000E-01  8.00000000E-01  1.50000000E+00  8.00000000E-01  8.00000000E-01
  1.50000000E+00  8.00000000E-01  8.00000000E-01  1.50000000E+00  8.00000000E-01
  8.00000000E-01  1.50000000E+00  8.00000000E-01  8.00000000E-01  1.50000000E+00
  8.00000000E-01  8.00000000E-01  1.50000000E+00  8.00000000E-01  8.00000000E-01
  1.50000000E+00  8.00000000E-01  8.00000000E-01  1.50000000E+00  8.00000000E-01
  8.00000000E-01  1.50000000E+00  8.00000000E-01  8.00000000E-01  1.50000000E+00
  8.00000000E-01  8.00000000E-01  1.50000000E+00  8.00000000E-01  8.00000000E-01
  1.50000000E+00  8.00000000E-01  8.00000000E-01  1.50000000E+00  8.00000000E-01
  8.00000000E-01  1.50000000E+00  8.00000000E-01  8.00000000E-01  1.50000000E+00
  8.00000000E-01  8.00000000E-01  1.50000000E+00  8.00000000E-01  8.00000000E-01
  1.50000000E+00  8.00000000E-01  8.00000000E-01  1.50000000E+00  8.00000000E-01
  8.00000000E-01  1.50000000E+00  8.00000000E-01  8.00000000E-01  1.50000000E+00
  8.00000000E-01  8.00000000E-01  1.50000000E+00  8.00000000E-01  8.00000000E-01
  1.50000000E+00  8.00000000E-01  8.00000000E-01  1.50000000E+00  8.00000000E-01
  8.00000000E-01  1.50000000E+00  8.00000000E-01  8.00000000E-01  1.50000000E+00
  8.00000000E-01  8.00000000E-01  1.50000000E+00  8.00000000E-01  8.00000000E-01
  1.50000000E+00  8.00000000E-01  8.00000000E-01  1.50000000E+00  8.00000000E-01
  8.00000000E-01  1.50000000E+00  8.00000000E-01  8.00000000E-01  1.50000000E+00
  8.00000000E-01  8.00000000E-01  1.50000000E+00  8.00000000E-01  8.00000000E-01
  1.50000000E+00  8.00000000E-01  8.00000000E-01  1.50000000E+00  8.00000000E-01
  8.00000000E-01  1.50000000E+00  8.00000000E-01  8.00000000E-01  1.50000000E+00
  8.00000000E-01  8.00000000E-01  1.50000000E+00  8.00000000E-01  8.00000000E-01
  1.50000000E+00  8.00000000E-01  8.00000000E-01  1.50000000E+00  8.00000000E-01
  8.00000000E-01  1.50000000E+00  8.00000000E-01  8.00000000E-01  1.50000000E+00
  8.00000000E-01  8.00000000E-01  1.50000000E+00  8.00000000E-01  8.00000000E-01
  1.50000000E+00  8.00000000E-01  8.00000000E-01  1.50000000E+00  8.00000000E-01
  8.00000000E-01  1.50000000E+00  8.00000000E-01  8.00000000E-01  1.50000000E+00
  8.00000000E-01  8.00000000E-01  1.50000000E+00  8.00000000E-01  8.00000000E-01
  1.50000000E+00  8.00000000E-01  8.00000000E-01  1.50000000E+00  8.00000000E-01
  8.00000000E-01  1.50000000E+00  8.00000000E-01  8.00000000E-01  1.50000000E+00
  8.00000000E-01  8.00000000E-01  1.50000000E+00  8.00000000E-01  8.00000000E-01
  1.50000000E+00  8.00000000E-01  8.00000000E-01  1.50000000E+00  8.00000000E-01
  8.00000000E-01  1.50000000E+00  8.00000000E-01  8.00000000E-01  1.50000000E+00
  8.00000000E-01  8.00000000E-01  1.50000000E+00  8.00000000E-01  8.00000000E-01
  1.50000000E+00  8.00000000E-01  8.00000000E-01  1.50000000E+00  8.00000000E-01
  8.00000000E-01  1.50000000E+00  8.00000000E-01  8.00000000E-01  1.50000000E+00
  8.00000000E-01  8.00000000E-01  1.50000000E+00  8.00000000E-01  8.00000000E-01
  1.50000000E+00  8.00000000E-01  8.00000000E-01  1.50000000E+00  8.00000000E-01
  8.00000000E-01  1.50000000E+00  8.00000000E-01  8.00000000E-01  1.50000000E+00
  8.00000000E-01  8.00000000E-01  1.50000000E+00  8.00000000E-01  8.00000000E-01
  1.50000000E+00  8.00000000E-01  8.00000000E-01  1.50000000E+00  8.00000000E-01
  8.00000000E-01  1.50000000E+00  8.00000000E-01  8.00000000E-01  1.50000000E+00
  8.00000000E-01  8.00000000E-01  1.50000000E+00  8.00000000E-01  8.00000000E-01
  1.50000000E+00  8.00000000E-01  8.00000000E-01  1.50000000E+00  8.00000000E-01
  8.00000000E-01  1.50000000E+00  8.00000000E-01  8.00000000E-01  1.50000000E+00
  8.00000000E-01  8.00000000E-01  1.50000000E+00  8.00000000E-01  8.00000000E-01
  1.50000000E+00  8.00000000E-01  8.00000000E-01  1.50000000E+00  8.00000000E-01
  8.00000000E-01  1.50000000E+00  8.00000000E-01  8.00000000E-01  1.50000000E+00
  8.00000000E-01  8.00000000E-01  1.50000000E+00  8.00000000E-01  8.00000000E-01
  1.50000000E+00  8.00000000E-01  8.00000000E-01  1.50000000E+00  8.00000000E-01
  8.00000000E-01  1.50000000E+00  8.00000000E-01  8.00000000E-01  1.50000000E+00
  8.00000000E-01  8.00000000E-01  1.50000000E+00  8.00000000E-01  8.00000000E-01
  1.50000000E+00  8.00000000E-01  8.00000000E-01  1.50000000E+00  8.00000000E-01
  8.00000000E-01  1.50000000E+00  8.00000000E-01  8.00000000E-01  1.50000000E+00
  8.00000000E-01  8.00000000E-01  1.50000000E+00  8.00000000E-01  8.00000000E-01
  1.50000000E+00  8.00000000E-01  8.00000000E-01  1.50000000E+00  8.00000000E-01
  8.00000000E-01  1.50000000E+00  8.00000000E-01  8.00000000E-01  1.50000000E+00
  8.00000000E-01  8.00000000E-01  1.50000000E+00  8.00000000E-01  8.00000000E-01
  1.50000000E+00  8.00000000E-01  8.00000000E-01  1.50000000E+00  8.00000000E-01
  8.00000000E-01  1.50000000E+00  8.00000000E-01  8.00000000E-01  1.50000000E+00
  8.00000000E-01  8.00000000E-01  1.50000000E+00  8.00000000E-01  8.00000000E-01
  1.50000000E+00  8.00000000E-01  8.00000000E-01  1.50000000E+00  8.00000000E-01
  8.00000000E-01  1.50000000E+00  8.00000000E-01  8.00000000E-01  1.50000000E+00
  8.00000000E-01  8.00000000E-01  1.50000000E+00  8.00000000E-01  8.00000000E-01
  1.50000000E+00  8.00000000E-01  8.00000000E-01  1.50000000E+00  8.00000000E-01
  8.00000000E-01  1.50000000E+00  8.00000000E-01  8.00000000E-01  1.50000000E+00
  8.00000000E-01  8.00000000E-01  1.50000000E+00  8.00000000E-01  8.00000000E-01
  1.50000000E+00  8.00000000E-01  8.00000000E-01  1.50000000E+00  8.00000000E-01
  8.00000000E-01  1.50000000E+00  8.00000000E-01  8.00000000E-01  1.50000000E+00
  8.00000000E-01  8.00000000E-01  1.50000000E+00  8.00000000E-01  8.00000000E-01
  1.50000000E+00  8.00000000E-01  8.00000000E-01  1.50000000E+00  8.00000000E-01
  8.00000000E-01  1.50000000E+00  8.00000000E-01  8.00000000E-01  1.50000000E+00
  8.00000000E-01  8.00000000E-01  1.50000000E+00  8.00000000E-01  8.00000000E-01
  1.50000000E+00  8.00000000E-01  8.00000000E-01  1.50000000E+00  8.00000000E-01
  8.00000000E-01  1.50000000E+00  8.00000000E-01  8.00000000E-01  1.50000000E+00
  8.00000000E-01  8.00000000E-01  1.50000000E+00  8.00000000E-01  8.00000000E-01
  1.50000000E+00  8.00000000E-01  8.00000000E-01  1.50000000E+00  8.00000000E-01
  8.00000000E-01  1.50000000E+00  8.00000000E-01  8.00000000E-01  1.50000000E+00
  8.00000000E-01  8.00000000E-01  1.50000000E+00  8.00000000E-01  8.00000000E-01
  1.50000000E+00  8.00000000E-01  8.00000000E-01  1.50000000E+00  8.00000000E-01
  8.00000000E-01  1.50000000E+00  8.00000000E-01  8.00000000E-01  1.50000000E+00
  8.00000000E-01  8.00000000E-01  1.50000000E+00  8.00000000E-01  8.00000000E-01
  1.50000000E+00  8.00000000E-01  8.00000000E-01  1.50000000E+00  8.00000000E-01
  8.00000000E-01  1.50000000E+00  8.00000000E-01  8.00000000E-01  1.50000000E+00
  8.00000000E-01  8.00000000E-01  1.50000000E+00  8.00000000E-01  8.00000000E-01
  1.50000000E+00  8.00000000E-01  8.00000000E-01  1.50000000E+00  8.00000000E-01
  8.00000000E-01  1.50000000E+00  8.00000000E-01  8.00000000E-01  1.50000000E+00
  8.00000000E-01  8.00000000E-01  1.50000000E+00  8.00000000E-01  8.00000000E-01
  1.50000000E+00  8.00000000E-01  8.00000000E-01  1.50000000E+00  8.00000000E-01
  8.00000000E-01  1.50000000E+00  8.00000000E-01  8.00000000E-01  1.50000000E+00
  8.00000000E-01  8.00000000E-01  1.50000000E+00  8.00000000E-01  8.00000000E-01
  1.50000000E+00  8.00000000E-01  8.00000000E-01  1.50000000E+00  8.00000000E-01
  8.00000000E-01  1.50000000E+00  8.00000000E-01  8.00000000E-01  1.50000000E+00
  8.00000000E-01  8.00000000E-01  1.50000000E+00  8.00000000E-01  8.00000000E-01
  1.50000000E+00  8.00000000E-01  8.00000000E-01  1.50000000E+00  8.00000000E-01
  8.00000000E-01  1.50000000E+00  8.00000000E-01  8.00000000E-01  1.50000000E+00
  8.00000000E-01  8.00000000E-01  1.50000000E+00  8.00000000E-01  8.00000000E-01
  1.50000000E+00  8.00000000E-01  8.00000000E-01  1.50000000E+00  8.00000000E-01
  8.00000000E-01  1.50000000E+00  8.00000000E-01  8.00000000E-01  1.50000000E+00
  8.00000000E-01  8.00000000E-01  1.50000000E+00  8.00000000E-01  8.00000000E-01
  1.50000000E+00  8.00000000E-01  8.00000000E-01  1.50000000E+00  8.00000000E-01
  8.00000000E-01  1.50000000E+00  8.00000000E-01  8.00000000E-01  1.50000000E+00
  8.00000000E-01  8.00000000E-01  1.50000000E+00  8.00000000E-01  8.00000000E-01
  1.50000000E+00  8.00000000E-01  8.00000000E-01  1.50000000E+00  8.00000000E-01
  8.00000000E-01  1.50000000E+00  8.00000000E-01  8.00000000E-01  1.50000000E+00
  8.00000000E-01  8.00000000E-01  1.50000000E+00  8.00000000E-01  8.00000000E-01
  1.50000000E+00  8.00000000E-01  8.00000000E-01  1.50000000E+00  8.00000000E-01
  8.00000000E-01  1.50000000E+00  8.00000000E-01  8.00000000E-01  1.50000000E+00
  8.00000000E-01  8.00000000E-01  1.50000000E+00  8.00000000E-01  8.00000000E-01
  1.50000000E+00  8.00000000E-01  8.00000000E-01  1.50000000E+00  8.00000000E-01
  8.00000000E-01  1.50000000E+00  8.00000000E-01  8.00000000E-01  1.50000000E+00
  8.00000000E-01  8.00000000E-01  1.50000000E+00  8.00000000E-01  8.00000000E-01
  1.50000000E+00  8.00000000E-01  8.00000000E-01  1.50000000E+00  8.00000000E-01
  8.00000000E-01  1.50000000E+00  8.00000000E-01  8.00000000E-01  1.50000000E+00
  8.00000000E-01  8.00000000E-01  1.50000000E+00  8.00000000E-01  8.00000000E-01
  1.50000000E+00  8.00000000E-01  8.00000000E-01  1.50000000E+00  8.00000000E-01
  8.00000000E-01  1.50000000E+00  8.00000000E-01  8.00000000E-01  1.50000000E+00
  8.00000000E-01  8.00000000E-01  1.50000000E+00  8.00000000E-01  8.00000000E-01
  1.50000000E+00  8.00000000E-01  8.00000000E-01  1.50000000E+00  8.00000000E-01
  8.00000000E-01  1.50000000E+00  8.00000000E-01  8.00000000E-01  1.50000000E+00
  8.00000000E-01  8.00000000E-01  1.50000000E+00  8.00000000E-01  8.00000000E-01
  1.50000000E+00  8.00000000E-01  8.00000000E-01  1.50000000E+00  8.00000000E-01
  8.00000000E-01  1.50000000E+00  8.00000000E-01  8.00000000E-01  1.50000000E+00
  8.00000000E-01  8.00000000E-01  1.50000000E+00  8.00000000E-01  8.00000000E-01
  1.50000000E+00  8.00000000E-01  8.00000000E-01  1.50000000E+00  8.00000000E-01
  8.00000000E-01  1.50000000E+00  8.00000000E-01  8.00000000E-01  1.50000000E+00
  8.00000000E-01  8.00000000E-01  1.50000000E+00  8.00000000E-01  8.00000000E-01
  1.50000000E+00  8.00000000E-01  8.00000000E-01  1.50000000E+00  8.00000000E-01
  8.00000000E-01  1.50000000E+00  8.00000000E-01  8.00000000E-01  1.50000000E+00
  8.00000000E-01  8.00000000E-01  1.50000000E+00  8.00000000E-01  8.00000000E-01
  1.50000000E+00  8.00000000E-01  8.00000000E-01  1.50000000E+00  8.00000000E-01
  8.00000000E-01  1.50000000E+00  8.00000000E-01  8.00000000E-01  1.50000000E+00
  8.00000000E-01  8.00000000E-01  1.50000000E+00  8.00000000E-01  8.00000000E-01
  1.50000000E+00  8.00000000E-01  8.00000000E-01  1.50000000E+00  8.00000000E-01
  8.00000000E-01  1.50000000E+00  8.00000000E-01  8.00000000E-01  1.50000000E+00
  8.00000000E-01  8.00000000E-01  1.50000000E+00  8.00000000E-01  8.00000000E-01
  1.50000000E+00  8.00000000E-01  8.00000000E-01  1.50000000E+00  8.00000000E-01
  8.00000000E-01  1.50000000E+00  8.00000000E-01  8.00000000E-01  1.50000000E+00
  8.00000000E-01  8.00000000E-01  1.50000000E+00  8.00000000E-01  8.00000000E-01
  1.50000000E+00  8.00000000E-01  8.00000000E-01  1.50000000E+00  8.00000000E-01
  8.00000000E-01  1.50000000E+00  8.00000000E-01  8.00000000E-01  1.50000000E+00
  8.00000000E-01  8.00000000E-01  1.50000000E+00  8.00000000E-01  8.00000000E-01
  1.50000000E+00  8.00000000E-01  8.00000000E-01  1.50000000E+00  8.00000000E-01
  8.00000000E-01  1.50000000E+00  8.00000000E-01  8.00000000E-01  1.50000000E+00
  8.00000000E-01  8.00000000E-01  1.50000000E+00  8.00000000E-01  8.00000000E-01
  1.50000000E+00  8.00000000E-01  8.00000000E-01  1.50000000E+00  8.00000000E-01
  8.00000000E-01  1.50000000E+00  8.00000000E-01  8.00000000E-01  1.50000000E+00
  8.00000000E-01  8.00000000E-01  1.50000000E+00  8.00000000E-01  8.00000000E-01
  1.50000000E+00  8.00000000E-01  8.00000000E-01  1.50000000E+00  8.00000000E-01
  8.00000000E-01  1.50000000E+00  8.00000000E-01  8.00000000E-01  1.50000000E+00
  8.00000000E-01  8.00000000E-01  1.50000000E+00  8.00000000E-01  8.00000000E-01
  1.50000000E+00  8.00000000E-01  8.00000000E-01  1.50000000E+00  8.00000000E-01
  8.00000000E-01  1.50000000E+00  8.00000000E-01  8.00000000E-01  1.50000000E+00
  8.00000000E-01  8.00000000E-01  1.50000000E+00  8.00000000E-01  8.00000000E-01
  1.50000000E+00  8.00000000E-01  8.00000000E-01  1.50000000E+00  8.00000000E-01
  8.00000000E-01  1.50000000E+00  8.00000000E-01  8.00000000E-01  1.50000000E+00
  8.00000000E-01  8.00000000E-01  1.50000000E+00  8.00000000E-01  8.00000000E-01
  1.50000000E+00  8.00000000E-01  8.00000000E-01  1.50000000E+00  8.00000000E-01
  8.00000000E-01  1.50000000E+00  8.00000000E-01  8.00000000E-01  1.50000000E+00
  8.00000000E-01  8.00000000E-01  1.50000000E+00  8.00000000E-01  8.00000000E-01
  1.50000000E+00  8.00000000E-01  8.00000000E-01  1.50000000E+00  8.00000000E-01
  8.00000000E-01  1.50000000E+00  8.00000000E-01  8.00000000E-01  1.50000000E+00
  8.00000000E-01  8.00000000E-01  1.50000000E+00  8.00000000E-01  8.00000000E-01
  1.50000000E+00  8.00000000E-01  8.00000000E-01  1.50000000E+00  8.00000000E-01
  8.00000000E-01  1.50000000E+00  8.00000000E-01  8.00000000E-01  1.50000000E+00
  8.00000000E-01  8.00000000E-01  1.50000000E+00  8.00000000E-01  8.00000000E-01
  1.50000000E+00  8.00000000E-01  8.00000000E-01  1.50000000E+00  8.00000000E-01
  8.00000000E-01  1.50000000E+00  8.00000000E-01  8.00000000E-01
%FLAG SCREEN                                                                    
%FORMAT(5E16.8)                                                                 
  8.00000000E-01  8.00000000E-01  8.00000000E-01  8.00000000E-01  8.00000000E-01
  8.00000000E-01  8.00000000E-01  8.00000000E-01  8.50000000E-01  8.50000000E-01
  8.50000000E-01  8.50000000E-01  8.50000000E-01  8.50000000E-01  8.50000000E-01
  8.50000000E-01  8.50000000E-01  8.50000000E-01  8.50000000E-01  8.50000000E-01
  8.50000000E-01  8.50000000E-01  8.50000000E-01  8.50000000E-01  8.50000000E-01
  8.50000000E-01  8.50000000E-01  8.50000000E-01  8.50000000E-01  8.50000000E-01
  8.50000000E-01  8.50000000E-01  8.50000000E-01  8.50000000E-01  8.50000000E-01
  8.50000000E-01  8.50000000E-01  8.50000000E-01  8.50000000E-01  8.50000000E-01
  8.50000000E-01  8.50000000E-01  8.50000000E-01  8.50000000E-01  8.50000000E-01
  8.50000000E-01  8.50000000E-01  8.50000000E-01  8.50000000E-01  8.50000000E-01
  8.50000000E-01  8.50000000E-01  8.50000000E-01  8.50000000E-01  8.50000000E-01
  8.50000000E-01  8.50000000E-01  8.50000000E-01  8.50000000E-01  8.50000000E-01
  8.50000000E-01  8.50000000E-01  8.50000000E-01  8.50000000E-01  8.50000000E-01
  8.50000000E-01  8.50000000E-01  8.50000000E-01  8.50000000E-01  8.50000000E-01
  8.50000000E-01  8.50000000E-01  8.50000000E-01  8.50000000E-01  8.50000000E-01
  8.50000000E-01  8.50000000E-01  8.50000000E-01  8.50000000E-01  8.50000000E-01
  8.50000000E-01  8.50000000E-01  8.50000000E-01  8.50000000E-01  8.50000000E-01
  8.50000000E-01  8.50000000E-01  8.50000000E-01  8.50000000E-01  8.50000000E-01
  8.50000000E-01  8.50000000E-01  8.50000000E-01  8.50000000E-01  8.50000000E-01
  8.50000000E-01  8.50000000E-01  8.50000000E-01  8.50000000E-01  8.50000000E-01
  8.50000000E-01  8.50000000E-01  8.50000000E-01  8.50000000E-01  8.50000000E-01
  8.50000000E-01  8.50000000E-01  8.50000000E-01  8.50000000E-01  8.50000000E-01
  8.50000000E-01  8.50000000E-01  8.50000000E-01  8.50000000E-01  8.50000000E-01
  8.50000000E-01  8.50000000E-01  8.50000000E-01  8.50000000E-01  8.50000000E-01
  8.50000000E-01  8.50000000E-01  8.50000000E-01  8.50000000E-01  8.50000000E-01
  8.50000000E-01  8.50000000E-01  8.50000000E-01  8.50000000E-01  8.50000000E-01
  8.50000000E-01  8.50000000E-01  8.50000000E-01  8.50000000E-01  8.50000000E-01
  8.50000000E-01  8.50000000E-01  8.50000000E-01  8.50000000E-01  8.50000000E-01
  8.50000000E-01  8.50000000E-01  8.50000000E-01  8.50000000E-01  8.50000000E-01
  8.50000000E-01  8.50000000E-01  8.50000000E-01  8.50000000E-01  8.50000000E-01
  8.50000000E-01  8.50000000E-01  8.50000000E-01  8.50000000E-01  8.50000000E-01
  8.50000000E-01  8.50000000E-01  8.50000000E-01  8.50000000E-01  8.50000000E-01
  8.50000000E-01  8.50000000E-01  8.50000000E-01  8.50000000E-01  8.50000000E-01
  8.50000000E-01  8.50000000E-01  8.50000000E-01  8.50000000E-01  8.50000000E-01
  8.50000000E-01  8.50000000E-01  8.50000000E-01  8.50000000E-01  8.50000000E-01
  8.50000000E-01  8.50000000E-01  8.50000000E-01  8.50000000E-01  8.50000000E-01
  8.50000000E-01  8.50000000E-01  8.50000000E-01  8.50000000E-01  8.50000000E-01
  8.50000000E-01  8.50000000E-01  8.50000000E-01  8.50000000E-01  8.50000000E-01
  8.50000000E-01  8.50000000E-01  8.50000000E-01  8.50000000E-01  8.50000000E-01
  8.50000000E-01  8.50000000E-01  8.50000000E-01  8.50000000E-01  8.50000000E-01
  8.50000000E-01  8.50000000E-01  8.50000000E-01  8.50000000E-01  8.50000000E-01
  8.50000000E-01  8.50000000E-01  8.50000000E-01  8.50000000E-01  8.50000000E-01
  8.50000000E-01  8.50000000E-01  8.50000000E-01  8.50000000E-01  8.50000000E-01
  8.50000000E-01  8.50000000E-01  8.50000000E-01  8.50000000E-01  8.50000000E-01
  8.50000000E-01  8.50000000E-01  8.50000000E-01  8.50000000E-01  8.50000000E-01
  8.50000000E-01  8.50000000E-01  8.50000000E-01  8.50000000E-01  8.50000000E-01
  8.50000000E-01  8.50000000E-01  8.50000000E-01  8.50000000E-01  8.50000000E-01
  8.50000000E-01  8.50000000E-01  8.50000000E-01  8.50000000E-01  8.50000000E-01
  8.50000000E-01  8.50000000E-01  8.50000000E-01  8.50000000E-01  8.50000000E-01
  8.50000000E-01  8.50000000E-01  8.50000000E-01  8.50000000E-01  8.50000000E-01
  8.50000000E-01  8.50000000E-01  8.50000000E-01  8.50000000E-01  8.50000000E-01
  8.50000000E-01  8.50000000E-01  8.50000000E-01  8.50000000E-01  8.50000000E-01
  8.50000000E-01  8.50000000E-01  8.50000000E-01  8.50000000E-01  8.50000000E-01
  8.50000000E-01  8.50000000E-01  8.50000000E-01  8.50000000E-01  8.50000000E-01
  8.50000000E-01  8.50000000E-01  8.50000000E-01  8.50000000E-01  8.50000000E-01
  8.50000000E-01  8.50000000E-01  8.50000000E-01  8.50000000E-01  8.50000000E-01
  8.50000000E-01  8.50000000E-01  8.50000000E-01  8.50000000E-01  8.50000000E-01
  8.50000000E-01  8.50000000E-01  8.50000000E-01  8.50000000E-01  8.50000000E-01
  8.50000000E-01  8.50000000E-01  8.50000000E-01  8.50000000E-01  8.50000000E-01
  8.50000000E-01  8.50000000E-01  8.50000000E-01  8.50000000E-01  8.50000000E-01
  8.50000000E-01  8.50000000E-01  8.50000000E-01  8.50000000E-01  8.50000000E-01
  8.50000000E-01  8.50000000E-01  8.50000000E-01  8.50000000E-01  8.50000000E-01
  8.50000000E-01  8.50000000E-01  8.50000000E-01  8.50000000E-01  8.50000000E-01
  8.50000000E-01  8.50000000E-01  8.50000000E-01  8.50000000E-01  8.50000000E-01
  8.50000000E-01  8.50000000E-01  8.50000000E-01  8.50000000E-01  8.50000000E-01
  8.50000000E-01  8.50000000E-01  8.50000000E-01  8.50000000E-01  8.50000000E-01
  8.50000000E-01  8.50000000E-01  8.50000000E-01  8.50000000E-01  8.50000000E-01
  8.50000000E-01  8.50000000E-01  8.50000000E-01  8.50000000E-01  8.50000000E-01
  8.50000000E-01  8.50000000E-01  8.50000000E-01  8.50000000E-01  8.50000000E-01
  8.50000000E-01  8.50000000E-01  8.50000000E-01  8.50000000E-01  8.50000000E-01
  8.50000000E-01  8.50000000E-01  8.50000000E-01  8.50000000E-01  8.50000000E-01
  8.50000000E-01  8.50000000E-01  8.50000000E-01  8.50000000E-01  8.50000000E-01
  8.50000000E-01  8.50000000E-01  8.50000000E-01  8.50000000E-01  8.50000000E-01
  8.50000000E-01  8.50000000E-01  8.50000000E-01  8.50000000E-01  8.50000000E-01
  8.50000000E-01  8.50000000E-01  8.50000000E-01  8.50000000E-01  8.50000000E-01
  8.50000000E-01  8.50000000E-01  8.50000000E-01  8.50000000E-01  8.50000000E-01
  8.50000000E-01  8.50000000E-01  8.50000000E-01  8.50000000E-01  8.50000000E-01
  8.50000000E-01  8.50000000E-01  8.50000000E-01  8.50000000E-01  8.50000000E-01
  8.50000000E-01  8.50000000E-01  8.50000000E-01  8.50000000E-01  8.50000000E-01
  8.50000000E-01  8.50000000E-01  8.50000000E-01  8.50000000E-01  8.50000000E-01
  8.50000000E-01  8.50000000E-01  8.50000000E-01  8.50000000E-01  8.50000000E-01
  8.50000000E-01  8.50000000E-01  8.50000000E-01  8.50000000E-01  8.50000000E-01
  8.50000000E-01  8.50000000E-01  8.50000000E-01  8.50000000E-01  8.50000000E-01
  8.50000000E-01  8.50000000E-01  8.50000000E-01  8.50000000E-01  8.50000000E-01
  8.50000000E-01  8.50000000E-01  8.50000000E-01  8.50000000E-01  8.50000000E-01
  8.50000000E-01  8.50000000E-01  8.50000000E-01  8.50000000E-01  8.50000000E-01
  8.50000000E-01  8.50000000E-01  8.50000000E-01  8.50000000E-01  8.50000000E-01
  8.50000000E-01  8.50000000E-01  8.50000000E-01  8.50000000E-01  8.50000000E-01
  8.50000000E-01  8.50000000E-01  8.50000000E-01  8.50000000E-01  8.50000000E-01
  8.50000000E-01  8.50000000E-01  8.50000000E-01  8.50000000E-01  8.50000000E-01
  8.50000000E-01  8.50000000E-01  8.50000000E-01  8.50000000E-01  8.50000000E-01
  8.50000000E-01  8.50000000E-01  8.50000000E-01  8.50000000E-01  8.50000000E-01
  8.50000000E-01  8.50000000E-01  8.50000000E-01  8.50000000E-01  8.50000000E-01
  8.50000000E-01  8.50000000E-01  8.50000000E-01  8.50000000E-01  8.50000000E-01
  8.50000000E-01  8.50000000E-01  8.50000000E-01  8.50000000E-01  8.50000000E-01
  8.50000000E-01  8.50000000E-01  8.50000000E-01  8.50000000E-01  8.50000000E-01
  8.50000000E-01  8.50000000E-01  8.50000000E-01  8.50000000E-01  8.50000000E-01
  8.50000000E-01  8.50000000E-01  8.50000000E-01  8.50000000E-01  8.50000000E-01
  8.50000000E-01  8.50000000E-01  8.50000000E-01  8.50000000E-01  8.50000000E-01
  8.50000000E-01  8.50000000E-01  8.50000000E-01  8.50000000E-01  8.50000000E-01
  8.50000000E-01  8.50000000E-01  8.50000000E-01  8.50000000E-01  8.50000000E-01
  8.50000000E-01  8.50000000E-01  8.50000000E-01  8.50000000E-01  8.50000000E-01
  8.50000000E-01  8.50000000E-01  8.50000000E-01  8.50000000E-01  8.50000000E-01
  8.50000000E-01  8.50000000E-01  8.50000000E-01  8.50000000E-01  8.50000000E-01
  8.50000000E-01  8.50000000E-01  8.50000000E-01  8.50000000E-01  8.50000000E-01
  8.50000000E-01  8.50000000E-01  8.50000000E-01  8.50000000E-01  8.50000000E-01
  8.50000000E-01  8.50000000E-01  8.50000000E-01  8.50000000E-01  8.50000000E-01
  8.50000000E-01  8.50000000E-01  8.50000000E-01  8.50000000E-01  8.50000000E-01
  8.50000000E-01  8.50000000E-01  8.50000000E-01  8.50000000E-01  8.50000000E-01
  8.50000000E-01  8.50000000E-01  8.50000000E-01  8.50000000E-01  8.50000000E-01
  8.50000000E-01  8.50000000E-01  8.50000000E-01  8.50000000E-01  8.50000000E-01
  8.50000000E-01  8.50000000E-01  8.50000000E-01  8.50000000E-01  8.50000000E-01
  8.50000000E-01  8.50000000E-01  8.50000000E-01  8.50000000E-01  8.50000000E-01
  8.50000000E-01  8.50000000E-01  8.50000000E-01  8.50000000E-01  8.50000000E-01
  8.50000000E-01  8.50000000E-01  8.50000000E-01  8.50000000E-01  8.50000000E-01
  8.50000000E-01  8.50000000E-01  8.50000000E-01  8.50000000E-01  8.50000000E-01
  8.50000000E-01  8.50000000E-01  8.50000000E-01  8.50000000E-01  8.50000000E-01
  8.50000000E-01  8.50000000E-01  8.50000000E-01  8.50000000E-01  8.50000000E-01
  8.50000000E-01  8.50000000E-01  8.50000000E-01  8.50000000E-01  8.50000000E-01
  8.50000000E-01  8.50000000E-01  8.50000000E-01  8.50000000E-01  8.50000000E-01
  8.50000000E-01  8.50000000E-01  8.50000000E-01  8.50000000E-01  8.50000000E-01
  8.50000000E-01  8.50000000E-01  8.50000000E-01  8.50000000E-01  8.50000000E-01
  8.50000000E-01  8.50000000E-01  8.50000000E-01  8.50000000E-01  8.50000000E-01
  8.50000000E-01  8.50000000E-01  8.50000000E-01  8.50000000E-01  8.50000000E-01
  8.50000000E-01  8.50000000E-01  8.50000000E-01  8.50000000E-01  8.50000000E-01
  8.50000000E-01  8.50000000E-01  8.50000000E-01  8.50000000E-01  8.50000000E-01
  8.50000000E-01  8.50000000E-01  8.50000000E-01  8.50000000E-01  8.50000000E-01
  8.50000000E-01  8.50000000E-01  8.50000000E-01  8.50000000E-01  8.50000000E-01
  8.50000000E-01  8.50000000E-01  8.50000000E-01  8.50000000E-01  8.50000000E-01
  8.50000000E-01  8.50000000E-01  8.50000000E-01  8.50000000E-01  8.50000000E-01
  8.50000000E-01  8.50000000E-01  8.50000000E-01  8.50000000E-01  8.50000000E-01
  8.50000000E-01  8.50000000E-01  8.50000000E-01  8.50000000E-01  8.50000000E-01
  8.50000000E-01  8.50000000E-01  8.50000000E-01  8.50000000E-01  8.50000000E-01
  8.50000000E-01  8.50000000E-01  8.50000000E-01  8.50000000E-01  8.50000000E-01
  8.50000000E-01  8.50000000E-01  8.50000000E-01  8.50000000E-01  8.50000000E-01
  8.50000000E-01  8.50000000E-01  8.50000000E-01  8.50000000E-01  8.50000000E-01
  8.50000000E-01  8.50000000E-01  8.50000000E-01  8.50000000E-01  8.50000000E-01
  8.50000000E-01  8.50000000E-01  8.50000000E-01  8.50000000E-01  8.50000000E-01
  8.50000000E-01  8.50000000E-01  8.50000000E-01  8.50000000E-01  8.50000000E-01
  8.50000000E-01  8.50000000E-01  8.50000000E-01  8.50000000E-01  8.50000000E-01
  8.50000000E-01  8.50000000E-01  8.50000000E-01  8.50000000E-01  8.50000000E-01
  8.50000000E-01  8.50000000E-01  8.50000000E-01  8.50000000E-01  8.50000000E-01
  8.50000000E-01  8.50000000E-01  8.50000000E-01  8.50000000E-01  8.50000000E-01
  8.50000000E-01  8.50000000E-01  8.50000000E-01  8.50000000E-01  8.50000000E-01
  8.50000000E-01  8.50000000E-01  8.50000000E-01  8.50000000E-01  8.50000000E-01
  8.50000000E-01  8.50000000E-01  8.50000000E-01  8.50000000E-01  8.50000000E-01
  8.50000000E-01  8.50000000E-01  8.50000000E-01  8.50000000E-01  8.50000000E-01
  8.50000000E-01  8.50000000E-01  8.50000000E-01  8.50000000E-01  8.50000000E-01
  8.50000000E-01  8.50000000E-01  8.50000000E-01  8.50000000E-01  8.50000000E-01
  8.50000000E-01  8.50000000E-01  8.50000000E-01  8.50000000E-01  8.50000000E-01
  8.50000000E-01  8.50000000E-01  8.50000000E-01  8.50000000E-01  8.50000000E-01
  8.50000000E-01  8.50000000E-01  8.50000000E-01  8.50000000E-01  8.50000000E-01
  8.50000000E-01  8.50000000E-01  8.50000000E-01  8.50000000E-01  8.50000000E-01
  8.50000000E-01  8.50000000E-01  8.50000000E-01  8.50000000E-01  8.50000000E-01
  8.50000000E-01  8.50000000E-01  8.50000000E-01  8.50000000E-01  8.50000000E-01
  8.50000000E-01  8.50000000E-01  8.50000000E-01  8.50000000E-01  8.50000000E-01
  8.50000000E-01  8.50000000E-01  8.50000000E-01  8.50000000E-01  8.50000000E-01
  8.50000000E-01  8.50000000E-01  8.50000000E-01  8.50000000E-01  8.50000000E-01
  8.50000000E-01  8.50000000E-01  8.50000000E-01  8.50000000E-01  8.50000000E-01
  8.50000000E-01  8.50000000E-01  8.50000000E-01  8.50000000E-01  8.50000000E-01
  8.50000000E-01  8.50000000E-01  8.50000000E-01  8.50000000E-01  8.50000000E-01
  8.50000000E-01  8.50000000E-01  8.50000000E-01  8.50000000E-01  8.50000000E-01
  8.50000000E-01  8.50000000E-01  8.50000000E-01  8.50000000E-01  8.50000000E-01
  8.50000000E-01  8.50000000E-01  8.50000000E-01  8.50000000E-01  8.50000000E-01
  8.50000000E-01  8.50000000E-01  8.50000000E-01  8.50000000E-01  8.50000000E-01
  8.50000000E-01  8.50000000E-01  8.50000000E-01  8.50000000E-01  8.50000000E-01
  8.50000000E-01  8.50000000E-01  8.50000000E-01  8.50000000E-01  8.50000000E-01
  8.50000000E-01  8.50000000E-01  8.50000000E-01  8.50000000E-01  8.50000000E-01
  8.50000000E-01  8.50000000E-01  8.50000000E-01  8.50000000E-01  8.50000000E-01
  8.50000000E-01  8.50000000E-01  8.50000000E-01  8.50000000E-01  8.50000000E-01
  8.50000000E-01  8.50000000E-01  8.50000000E-01  8.50000000E-01  8.50000000E-01
  8.50000000E-01  8.50000000E-01  8.50000000E-01  8.50000000E-01  8.50000000E-01
  8.50000000E-01  8.50000000E-01  8.50000000E-01  8.50000000E-01  8.50000000E-01
  8.50000000E-01  8.50000000E-01  8.50000000E-01  8.50000000E-01  8.50000000E-01
  8.50000000E-01  8.50000000E-01  8.50000000E-01  8.50000000E-01  8.50000000E-01
  8.50000000E-01  8.50000000E-01  8.50000000E-01  8.50000000E-01  8.50000000E-01
  8.50000000E-01  8.50000000E-01  8.50000000E-01  8.50000000E-01  8.50000000E-01
  8.50000000E-01  8.50000000E-01  8.50000000E-01  8.50000000E-01  8.50000000E-01
  8.50000000E-01  8.50000000E-01  8.50000000E-01  8.50000000E-01  8.50000000E-01
  8.50000000E-01  8.50000000E-01  8.50000000E-01  8.50000000E-01  8.50000000E-01
  8.50000000E-01  8.50000000E-01  8.50000000E-01  8.50000000E-01  8.50000000E-01
  8.50000000E-01  8.50000000E-01  8.50000000E-01  8.50000000E-01  8.50000000E-01
  8.50000000E-01  8.50000000E-01  8.50000000E-01  8.50000000E-01  8.50000000E-01
  8.50000000E-01  8.50000000E-01  8.50000000E-01  8.50000000E-01  8.50000000E-01
  8.50000000E-01  8.50000000E-01  8.50000000E-01  8.50000000E-01  8.50000000E-01
  8.50000000E-01  8.50000000E-01  8.50000000E-01  8.50000000E-01  8.50000000E-01
  8.50000000E-01  8.50000000E-01  8.50000000E-01  8.50000000E-01  8.50000000E-01
  8.50000000E-01  8.50000000E-01  8.50000000E-01  8.50000000E-01  8.50000000E-01
  8.50000000E-01  8.50000000E-01  8.50000000E-01  8.50000000E-01  8.50000000E-01
  8.50000000E-01  8.50000000E-01  8.50000000E-01  8.50000000E-01  8.50000000E-01
  8.50000000E-01  8.50000000E-01  8.50000000E-01  8.50000000E-01  8.50000000E-01
  8.50000000E-01  8.50000000E-01  8.50000000E-01  8.50000000E-01  8.50000000E-01
  8.50000000E-01  8.50000000E-01  8.50000000E-01  8.50000000E-01  8.50000000E-01
  8.50000000E-01  8.50000000E-01  8.50000000E-01  8.50000000E-01  8.50000000E-01
  8.50000000E-01  8.50000000E-01  8.50000000E-01  8.50000000E-01  8.50000000E-01
  8.50000000E-01  8.50000000E-01  8.50000000E-01  8.50000000E-01  8.50000000E-01
  8.50000000E-01  8.50000000E-01  8.50000000E-01  8.50000000E-01  8.50000000E-01
  8.50000000E-01  8.50000000E-01  8.50000000E-01  8.50000000E-01  8.50000000E-01
  8.50000000E-01  8.50000000E-01  8.50000000E-01  8.50000000E-01  8.50000000E-01
  8.50000000E-01  8.50000000E-01  8.50000000E-01  8.50000000E-01  8.50000000E-01
  8.50000000E-01  8.50000000E-01  8.50000000E-01  8.50000000E-01  8.50000000E-01
  8.50000000E-01  8.50000000E-01  8.50000000E-01  8.50000000E-01  8.50000000E-01
  8.50000000E-01  8.50000000E-01  8.50000000E-01  8.50000000E-01  8.50000000E-01
  8.50000000E-01  8.50000000E-01  8.50000000E-01  8.50000000E-01  8.50000000E-01
  8.50000000E-01  8.50000000E-01  8.50000000E-01  8.50000000E-01  8.50000000E-01
  8.50000000E-01  8.50000000E-01  8.50000000E-01  8.50000000E-01  8.50000000E-01
  8.50000000E-01  8.50000000E-01  8.50000000E-01  8.50000000E-01  8.50000000E-01
  8.50000000E-01  8.50000000E-01  8.50000000E-01  8.50000000E-01  8.50000000E-01
  8.50000000E-01  8.50000000E-01  8.50000000E-01  8.50000000E-01  8.50000000E-01
  8.50000000E-01  8.50000000E-01  8.50000000E-01  8.50000000E-01  8.50000000E-01
  8.50000000E-01  8.50000000E-01  8.50000000E-01  8.50000000E-01  8.50000000E-01
  8.50000000E-01  8.50000000E-01  8.50000000E-01  8.50000000E-01  8.50000000E-01
  8.50000000E-01  8.50000000E-01  8.50000000E-01  8.50000000E-01  8.50000000E-01
  8.50000000E-01  8.50000000E-01  8.50000000E-01  8.50000000E-01  8.50000000E-01
  8.50000000E-01  8.50000000E-01  8.50000000E-01  8.50000000E-01  8.50000000E-01
  8.50000000E-01  8.50000000E-01  8.50000000E-01  8.50000000E-01  8.50000000E-01
  8.50000000E-01  8.50000000E-01  8.50000000E-01  8.50000000E-01  8.50000000E-01
  8.50000000E-01  8.50000000E-01  8.50000000E-01  8.50000000E-01  8.50000000E-01
  8.50000000E-01  8.50000000E-01  8.50000000E-01  8.50000000E-01  8.50000000E-01
  8.50000000E-01  8.50000000E-01  8.50000000E-01  8.50000000E-01  8.50000000E-01
  8.50000000E-01  8.50000000E-01  8.50000000E-01  8.50000000E-01  8.50000000E-01
  8.50000000E-01  8.50000000E-01  8.50000000E-01  8.50000000E-01  8.50000000E-01
  8.50000000E-01  8.50000000E-01  8.50000000E-01  8.50000000E-01  8.50000000E-01
  8.50000000E-01  8.50000000E-01  8.50000000E-01  8.50000000E-01  8.50000000E-01
  8.50000000E-01  8.50000000E-01  8.50000000E-01  8.50000000E-01  8.50000000E-01
  8.50000000E-01  8.50000000E-01  8.50000000E-01  8.50000000E-01  8.50000000E-01
  8.50000000E-01  8.50000000E-01  8.50000000E-01  8.50000000E-01  8.50000000E-01
  8.50000000E-01  8.50000000E-01  8.50000000E-01  8.50000000E-01  8.50000000E-01
  8.50000000E-01  8.50000000E-01  8.50000000E-01  8.50000000E-01  8.50000000E-01
  8.50000000E-01  8.50000000E-01  8.50000000E-01  8.50000000E-01  8.50000000E-01
  8.50000000E-01  8.50000000E-01  8.50000000E-01  8.50000000E-01  8.50000000E-01
  8.50000000E-01  8.50000000E-01  8.50000000E-01  8.50000000E-01  8.50000000E-01
  8.50000000E-01  8.50000000E-01  8.50000000E-01  8.50000000E-01  8.50000000E-01
  8.50000000E-01  8.50000000E-01  8.50000000E-01  8.50000000E-01  8.50000000E-01
  8.50000000E-01  8.50000000E-01  8.50000000E-01  8.50000000E-01  8.50000000E-01
  8.50000000E-01  8.50000000E-01  8.50000000E-01  8.50000000E-01  8.50000000E-01
  8.50000000E-01  8.50000000E-01  8.50000000E-01  8.50000000E-01  8.50000000E-01
  8.50000000E-01  8.50000000E-01  8.50000000E-01  8.50000000E-01  8.50000000E-01
  8.50000000E-01  8.50000000E-01  8.50000000E-01  8.50000000E-01  8.50000000E-01
  8.50000000E-01  8.50000000E-01  8.50000000E-01  8.50000000E-01  8.50000000E-01
  8.50000000E-01  8.50000000E-01  8.50000000E-01  8.50000000E-01  8.50000000E-01
  8.50000000E-01  8.50000000E-01  8.50000000E-01  8.50000000E-01  8.50000000E-01
  8.50000000E-01  8.50000000E-01  8.50000000E-01  8.50000000E-01  8.50000000E-01
  8.50000000E-01  8.50000000E-01  8.50000000E-01  8.50000000E-01  8.50000000E-01
  8.50000000E-01  8.50000000E-01  8.50000000E-01  8.50000000E-01  8.50000000E-01
  8.50000000E-01  8.50000000E-01  8.50000000E-01  8.50000000E-01  8.50000000E-01
  8.50000000E-01  8.50000000E-01  8.50000000E-01  8.50000000E-01  8.50000000E-01
  8.50000000E-01  8.50000000E-01  8.50000000E-01  8.50000000E-01  8.50000000E-01
  8.50000000E-01  8.50000000E-01  8.50000000E-01  8.50000000E-01  8.50000000E-01
  8.50000000E-01  8.50000000E-01  8.50000000E-01  8.50000000E-01  8.50000000E-01
  8.50000000E-01  8.50000000E-01  8.50000000E-01  8.50000000E-01  8.50000000E-01
  8.50000000E-01  8.50000000E-01  8.50000000E-01  8.50000000E-01  8.50000000E-01
  8.50000000E-01  8.50000000E-01  8.50000000E-01  8.50000000E-01  8.50000000E-01
  8.50000000E-01  8.50000000E-01  8.50000000E-01  8.50000000E-01  8.50000000E-01
  8.50000000E-01  8.50000000E-01  8.50000000E-01  8.50000000E-01  8.50000000E-01
  8.50000000E-01  8.50000000E-01  8.50000000E-01  8.50000000E-01  8.50000000E-01
  8.50000000E-01  8.50000000E-01  8.50000000E-01  8.50000000E-01  8.50000000E-01
  8.50000000E-01  8.50000000E-01  8.50000000E-01  8.50000000E-01  8.50000000E-01
  8.50000000E-01  8.50000000E-01  8.50000000E-01  8.50000000E-01  8.50000000E-01
  8.50000000E-01  8.50000000E-01  8.50000000E-01  8.50000000E-01  8.50000000E-01
  8.50000000E-01  8.50000000E-01  8.50000000E-01  8.50000000E-01  8.50000000E-01
  8.50000000E-01  8.50000000E-01  8.50000000E-01  8.50000000E-01  8.50000000E-01
  8.50000000E-01  8.50000000E-01  8.50000000E-01  8.50000000E-01  8.50000000E-01
  8.50000000E-01  8.50000000E-01  8.50000000E-01  8.50000000E-01  8.50000000E-01
  8.50000000E-01  8.50000000E-01  8.50000000E-01  8.50000000E-01  8.50000000E-01
  8.50000000E-01  8.50000000E-01  8.50000000E-01  8.50000000E-01  8.50000000E-01
  8.50000000E-01  8.50000000E-01  8.50000000E-01  8.50000000E-01  8.50000000E-01
  8.50000000E-01  8.50000000E-01  8.50000000E-01  8.50000000E-01  8.50000000E-01
  8.50000000E-01  8.50000000E-01  8.50000000E-01  8.50000000E-01  8.50000000E-01
  8.50000000E-01  8.50000000E-01  8.50000000E-01  8.50000000E-01  8.50000000E-01
  8.50000000E-01  8.50000000E-01  8.50000000E-01  8.50000000E-01  8.50000000E-01
  8.50000000E-01  8.50000000E-01  8.50000000E-01  8.50000000E-01  8.50000000E-01
  8.50000000E-01  8.50000000E-01  8.50000000E-01  8.50000000E-01  8.50000000E-01
  8.50000000E-01  8.50000000E-01  8.50000000E-01  8.50000000E-01  8.50000000E-01
  8.50000000E-01  8.50000000E-01  8.50000000E-01  8.50000000E-01  8.50000000E-01
  8.50000000E-01  8.50000000E-01  8.50000000E-01  8.50000000E-01  8.50000000E-01
  8.50000000E-01  8.50000000E-01  8.50000000E-01  8.50000000E-01  8.50000000E-01
  8.50000000E-01  8.50000000E-01  8.50000000E-01  8.50000000E-01  8.50000000E-01
  8.50000000E-01  8.50000000E-01  8.50000000E-01  8.50000000E-01  8.50000000E-01
  8.50000000E-01  8.50000000E-01  8.50000000E-01  8.50000000E-01  8.50000000E-01
  8.50000000E-01  8.50000000E-01  8.50000000E-01  8.50000000E-01  8.50000000E-01
  8.50000000E-01  8.50000000E-01  8.50000000E-01  8.50000000E-01  8.50000000E-01
  8.50000000E-01  8.50000000E-01  8.50000000E-01  8.50000000E-01  8.50000000E-01
  8.50000000E-01  8.50000000E-01  8.50000000E-01  8.50000000E-01  8.50000000E-01
  8.50000000E-01  8.50000000E-01  8.50000000E-01  8.50000000E-01  8.50000000E-01
  8.50000000E-01  8.50000000E-01  8.50000000E-01  8.50000000E-01  8.50000000E-01
  8.50000000E-01  8.50000000E-01  8.50000000E-01  8.50000000E-01  8.50000000E-01
  8.50000000E-01  8.50000000E-01  8.50000000E-01  8.50000000E-01  8.50000000E-01
  8.50000000E-01  8.50000000E-01  8.50000000E-01  8.50000000E-01  8.50000000E-01
  8.50000000E-01  8.50000000E-01  8.50000000E-01  8.50000000E-01  8.50000000E-01
  8.50000000E-01  8.50000000E-01  8.50000000E-01  8.50000000E-01  8.50000000E-01
  8.50000000E-01  8.50000000E-01  8.50000000E-01  8.50000000E-01  8.50000000E-01
  8.50000000E-01  8.50000000E-01  8.50000000E-01  8.50000000E-01  8.50000000E-01
  8.50000000E-01  8.50000000E-01  8.50000000E-01  8.50000000E-01  8.50000000E-01
  8.50000000E-01  8.50000000E-01  8.50000000E-01  8.50000000E-01  8.50000000E-01
  8.50000000E-01  8.50000000E-01  8.50000000E-01  8.50000000E-01  8.50000000E-01
  8.50000000E-01  8.50000000E-01  8.50000000E-01  8.50000000E-01  8.50000000E-01
  8.50000000E-01  8.50000000E-01  8.50000000E-01  8.50000000E-01  8.50000000E-01
  8.50000000E-01  8.50000000E-01  8.50000000E-01  8.50000000E-01  8.50000000E-01
  8.50000000E-01  8.50000000E-01  8.50000000E-01  8.50000000E-01  8.50000000E-01
  8.50000000E-01  8.50000000E-01  8.50000000E-01  8.50000000E-01  8.50000000E-01
  8.50000000E-01  8.50000000E-01  8.50000000E-01  8.50000000E-01  8.50000000E-01
  8.50000000E-01  8.50000000E-01  8.50000000E-01  8.50000000E-01  8.50000000E-01
  8.50000000E-01  8.50000000E-01  8.50000000E-01  8.50000000E-01  8.50000000E-01
  8.50000000E-01  8.50000000E-01  8.50000000E-01  8.50000000E-01  8.50000000E-01
  8.50000000E-01  8.50000000E-01  8.50000000E-01  8.50000000E-01  8.50000000E-01
  8.50000000E-01  8.50000000E-01  8.50000000E-01  8.50000000E-01  8.50000000E-01
  8.50000000E-01  8.50000000E-01  8.50000000E-01  8.50000000E-01  8.50000000E-01
  8.50000000E-01  8.50000000E-01  8.50000000E-01  8.50000000E-01  8.50000000E-01
  8.50000000E-01  8.50000000E-01  8.50000000E-01  8.50000000E-01  8.50000000E-01
  8.50000000E-01  8.50000000E-01  8.50000000E-01  8.50000000E-01  8.50000000E-01
  8.50000000E-01  8.50000000E-01  8.50000000E-01  8.50000000E-01  8.50000000E-01
  8.50000000E-01  8.50000000E-01  8.50000000E-01  8.50000000E-01  8.50000000E-01
  8.50000000E-01  8.50000000E-01  8.50000000E-01  8.50000000E-01  8.50000000E-01
  8.50000000E-01  8.50000000E-01  8.50000000E-01  8.50000000E-01  8.50000000E-01
  8.50000000E-01  8.50000000E-01  8.50000000E-01  8.50000000E-01  8.50000000E-01
  8.50000000E-01  8.50000000E-01  8.50000000E-01  8.50000000E-01  8.50000000E-01
  8.50000000E-01  8.50000000E-01  8.50000000E-01  8.50000000E-01  8.50000000E-01
  8.50000000E-01  8.50000000E-01  8.50000000E-01  8.50000000E-01  8.50000000E-01
  8.50000000E-01  8.50000000E-01  8.50000000E-01  8.50000000E-01  8.50000000E-01
  8.50000000E-01  8.50000000E-01  8.50000000E-01  8.50000000E-01  8.50000000E-01
  8.50000000E-01  8.50000000E-01  8.50000000E-01  8.50000000E-01  8.50000000E-01
  8.50000000E-01  8.50000000E-01  8.50000000E-01  8.50000000E-01  8.50000000E-01
  8.50000000E-01  8.50000000E-01  8.50000000E-01  8.50000000E-01  8.50000000E-01
  8.50000000E-01  8.50000000E-01  8.50000000E-01  8.50000000E-01  8.50000000E-01
  8.50000000E-01  8.50000000E-01  8.50000000E-01  8.50000000E-01  8.50000000E-01
  8.50000000E-01  8.50000000E-01  8.50000000E-01  8.50000000E-01  8.50000000E-01
  8.50000000E-01  8.50000000E-01  8.50000000E-01  8.50000000E-01  8.50000000E-01
  8.50000000E-01  8.50000000E-01  8.50000000E-01  8.50000000E-01  8.50000000E-01
  8.50000000E-01  8.50000000E-01  8.50000000E-01  8.50000000E-01  8.50000000E-01
  8.50000000E-01  8.50000000E-01  8.50000000E-01  8.50000000E-01  8.50000000E-01
  8.50000000E-01  8.50000000E-01  8.50000000E-01  8.50000000E-01  8.50000000E-01
  8.50000000E-01  8.50000000E-01  8.50000000E-01  8.50000000E-01  8.50000000E-01
  8.50000000E-01  8.50000000E-01  8.50000000E-01  8.50000000E-01  8.50000000E-01
  8.50000000E-01  8.50000000E-01  8.50000000E-01  8.50000000E-01  8.50000000E-01
  8.50000000E-01  8.50000000E-01  8.50000000E-01  8.50000000E-01  8.50000000E-01
  8.50000000E-01  8.50000000E-01  8.50000000E-01  8.50000000E-01  8.50000000E-01
  8.50000000E-01  8.50000000E-01  8.50000000E-01  8.50000000E-01  8.50000000E-01
  8.50000000E-01  8.50000000E-01  8.50000000E-01  8.50000000E-01  8.50000000E-01
  8.50000000E-01  8.50000000E-01  8.50000000E-01  8.50000000E-01  8.50000000E-01
  8.50000000E-01  8.50000000E-01  8.50000000E-01  8.50000000E-01  8.50000000E-01
  8.50000000E-01  8.50000000E-01  8.50000000E-01  8.50000000E-01  8.50000000E-01
  8.50000000E-01  8.50000000E-01  8.50000000E-01  8.50000000E-01  8.50000000E-01
  8.50000000E-01  8.50000000E-01  8.50000000E-01  8.50000000E-01  8.50000000E-01
  8.50000000E-01  8.50000000E-01  8.50000000E-01  8.50000000E-01  8.50000000E-01
  8.50000000E-01  8.50000000E-01  8.50000000E-01  8.50000000E-01  8.50000000E-01
  8.50000000E-01  8.50000000E-01  8.50000000E-01  8.50000000E-01  8.50000000E-01
  8.50000000E-01  8.50000000E-01  8.50000000E-01  8.50000000E-01  8.50000000E-01
  8.50000000E-01  8.50000000E-01  8.50000000E-01  8.50000000E-01  8.50000000E-01
  8.50000000E-01  8.50000000E-01  8.50000000E-01  8.50000000E-01  8.50000000E-01
  8.50000000E-01  8.50000000E-01  8.50000000E-01  8.50000000E-01  8.50000000E-01
  8.50000000E-01  8.50000000E-01  8.50000000E-01  8.50000000E-01  8.50000000E-01
  8.50000000E-01  8.50000000E-01  8.50000000E-01  8.50000000E-01  8.50000000E-01
  8.50000000E-01  8.50000000E-01  8.50000000E-01  8.50000000E-01  8.50000000E-01
  8.50000000E-01  8.50000000E-01  8.50000000E-01  8.50000000E-01  8.50000000E-01
  8.50000000E-01  8.50000000E-01  8.50000000E-01  8.50000000E-01  8.50000000E-01
  8.50000000E-01  8.50000000E-01  8.50000000E-01  8.50000000E-01  8.50000000E-01
  8.50000000E-01  8.50000000E-01  8.50000000E-01  8.50000000E-01  8.50000000E-01
  8.50000000E-01  8.50000000E-01  8.50000000E-01  8.50000000E-01  8.50000000E-01
  8.50000000E-01  8.50000000E-01  8.50000000E-01  8.50000000E-01  8.50000000E-01
  8.50000000E-01  8.50000000E-01  8.50000000E-01  8.50000000E-01  8.50000000E-01
  8.50000000E-01  8.50000000E-01  8.50000000E-01  8.50000000E-01  8.50000000E-01
  8.50000000E-01  8.50000000E-01  8.50000000E-01  8.50000000E-01  8.50000000E-01
  8.50000000E-01  8.50000000E-01  8.50000000E-01  8.50000000E-01  8.50000000E-01
  8.50000000E-01  8.50000000E-01  8.50000000E-01  8.50000000E-01  8.50000000E-01
  8.50000000E-01  8.50000000E-01  8.50000000E-01  8.50000000E-01  8.50000000E-01
  8.50000000E-01  8.50000000E-01  8.50000000E-01  8.50000000E-01  8.50000000E-01
  8.50000000E-01  8.50000000E-01  8.50000000E-01  8.50000000E-01  8.50000000E-01
  8.50000000E-01  8.50000000E-01  8.50000000E-01  8.50000000E-01
%FLAG IPOL                                                                      
%FORMAT(1I8)                                                                    
       0
%FLAG POL_GAUSS_FORCEFIELD
%COMMENT This indicates that this parm file is specific to pGM force field
%COMMENT This must be present if ipgm (in mdin) is 1
%COMMENT This must NOT be present if ipgm is 0
%FORMAT(i5)
    1
%FLAG POL_GAUSS_COVALENT_POINTERS_LIST
%COMMENT number of covalent dipoles per atom
%COMMENT   dimension = (1536=512*3)
%FORMAT(10I8)
       0       0       0       0       0       0       0       0       2       1
       1       2       1       1       2       1       1       2       1       1
       2       1       1       2       1       1       2       1       1       2
       1       1       2       1       1       2       1       1       2       1
       1       2       1       1       2       1       1       2       1       1
       2       1       1       2       1       1       2       1       1       2
       1       1       2       1       1       2       1       1       2       1
       1       2       1       1       2       1       1       2       1       1
       2       1       1       2       1       1       2       1       1       2
       1       1       2       1       1       2       1       1       2       1
       1       2       1       1       2       1       1       2       1       1
       2       1       1       2       1       1       2       1       1       2
       1       1       2       1       1       2       1       1       2       1
       1       2       1       1       2       1       1       2       1       1
       2       1       1       2       1       1       2       1       1       2
       1       1       2       1       1       2       1       1       2       1
       1       2       1       1       2       1       1       2       1       1
       2       1       1       2       1       1       2       1       1       2
       1       1       2       1       1       2       1       1       2       1
       1       2       1       1       2       1       1       2       1       1
       2       1       1       2       1       1       2       1       1       2
       1       1       2       1       1       2       1       1       2       1
       1       2       1       1       2       1       1       2       1       1
       2       1       1       2       1       1       2       1       1       2
       1       1       2       1       1       2       1       1       2       1
       1       2       1       1       2       1       1       2       1       1
       2       1       1       2       1       1       2       1       1       2
       1       1       2       1       1       2       1       1       2       1
       1       2       1       1       2       1       1       2       1       1
       2       1       1       2       1       1       2       1       1       2
       1       1       2       1       1       2       1       1       2       1
       1       2       1       1       2       1       1       2       1       1
       2       1       1       2       1       1       2       1       1       2
       1       1       2       1       1       2       1       1       2       1
       1       2       1       1       2       1       1       2       1       1
       2       1       1       2       1       1       2       1       1       2
       1       1       2       1       1       2       1       1       2       1
       1       2       1       1       2       1       1       2       1       1
       2       1       1       2       1       1       2       1       1       2
       1       1       2       1       1       2       1       1       2       1
       1       2       1       1       2       1       1       2       1       1
       2       1       1       2       1       1       2       1       1       2
       1       1       2       1       1       2       1       1       2       1
       1       2       1       1       2       1       1       2       1       1
       2       1       1       2       1       1       2       1       1       2
       1       1       2       1       1       2       1       1       2       1
       1       2       1       1       2       1       1       2       1       1
       2       1       1       2       1       1       2       1       1       2
       1       1       2       1       1       2       1       1       2       1
       1       2       1       1       2       1       1       2       1       1
       2       1       1       2       1       1       2       1       1       2
       1       1       2       1       1       2       1       1       2       1
       1       2       1       1       2       1       1       2       1       1
       2       1       1       2       1       1       2       1       1       2
       1       1       2       1       1       2       1       1       2       1
       1       2       1       1       2       1       1       2       1       1
       2       1       1       2       1       1       2       1       1       2
       1       1       2       1       1       2       1       1       2       1
       1       2       1       1       2       1       1       2       1       1
       2       1       1       2       1       1       2       1       1       2
       1       1       2       1       1       2       1       1       2       1
       1       2       1       1       2       1       1       2       1       1
       2       1       1       2       1       1       2       1       1       2
       1       1       2       1       1       2       1       1       2       1
       1       2       1       1       2       1       1       2       1       1
       2       1       1       2       1       1       2       1       1       2
       1       1       2       1       1       2       1       1       2       1
       1       2       1       1       2       1       1       2       1       1
       2       1       1       2       1       1       2       1       1       2
       1       1       2       1       1       2       1       1       2       1
       1       2       1       1       2       1       1       2       1       1
       2       1       1       2       1       1       2       1       1       2
       1       1       2       1       1       2       1       1       2       1
       1       2       1       1       2       1       1       2       1       1
       2       1       1       2       1       1       2       1       1       2
       1       1       2       1       1       2       1       1       2       1
       1       2       1       1       2       1       1       2       1       1
       2       1       1       2       1       1       2       1       1       2
       1       1       2       1       1       2       1       1       2       1
       1       2       1       1       2       1       1       2       1       1
       2       1       1       2       1       1       2       1       1       2
       1       1       2       1       1       2       1       1       2       1
       1       2       1       1       2       1       1       2       1       1
       2       1       1       2       1       1       2       1       1       2
       1       1       2       1       1       2       1       1       2       1
       1       2       1       1       2       1       1       2       1       1
       2       1       1       2       1       1       2       1       1       2
       1       1       2       1       1       2       1       1       2       1
       1       2       1       1       2       1       1       2       1       1
       2       1       1       2       1       1       2       1       1       2
       1       1       2       1       1       2       1       1       2       1
       1       2       1       1       2       1       1       2       1       1
       2       1       1       2       1       1       2       1       1       2
       1       1       2       1       1       2       1       1       2       1
       1       2       1       1       2       1       1       2       1       1
       2       1       1       2       1       1       2       1       1       2
       1       1       2       1       1       2       1       1       2       1
       1       2       1       1       2       1       1       2       1       1
       2       1       1       2       1       1       2       1       1       2
       1       1       2       1       1       2       1       1       2       1
       1       2       1       1       2       1       1       2       1       1
       2       1       1       2       1       1       2       1       1       2
       1       1       2       1       1       2       1       1       2       1
       1       2       1       1       2       1       1       2       1       1
       2       1       1       2       1       1       2       1       1       2
       1       1       2       1       1       2       1       1       2       1
       1       2       1       1       2       1       1       2       1       1
       2       1       1       2       1       1       2       1       1       2
       1       1       2       1       1       2       1       1       2       1
       1       2       1       1       2       1       1       2       1       1
       2       1       1       2       1       1       2       1       1       2
       1       1       2       1       1       2       1       1       2       1
       1       2       1       1       2       1       1       2       1       1
       2       1       1       2       1       1       2       1       1       2
       1       1       2       1       1       2       1       1       2       1
       1       2       1       1       2       1       1       2       1       1
       2       1       1       2       1       1       2       1       1       2
       1       1       2       1       1       2       1       1       2       1
       1       2       1       1       2       1       1       2       1       1
       2       1       1       2       1       1       2       1       1       2
       1       1       2       1       1       2       1       1       2       1
       1       2       1       1       2       1       1       2       1       1
       2       1       1       2       1       1       2       1       1       2
       1       1       2       1       1       2       1       1       2       1
       1       2       1       1       2       1       1       2       1       1
       2       1       1       2       1       1       2       1       1       2
       1       1       2       1       1       2       1       1       2       1
       1       2       1       1       2       1       1       2       1       1
       2       1       1       2       1       1       2       1       1       2
       1       1       2       1       1       2       1       1       2       1
       1       2       1       1       2       1       1       2       1       1
       2       1       1       2       1       1       2       1       1       2
       1       1       2       1       1       2       1       1       2       1
       1       2       1       1       2       1       1       2       1       1
       2       1       1       2       1       1       2       1       1       2
       1       1       2       1       1       2       1       1       2       1
       1       2       1       1       2       1       1       2       1       1
       2       1       1       2       1       1       2       1       1       2
       1       1       2       1       1       2       1       1       2       1
       1       2       1       1       2       1       1       2       1       1
       2       1       1       2       1       1       2       1       1       2
       1       1       2       1       1       2       1       1       2       1
       1       2       1       1       2       1       1       2       1       1
       2       1       1       2       1       1       2       1       1       2
       1       1       2       1       1       2       1       1       2       1
       1       2       1       1       2       1       1       2       1       1
       2       1       1       2       1       1       2       1       1       2
       1       1       2       1       1       2       1       1       2       1
       1       2       1       1       2       1       1       2       1       1
       2       1       1       2       1       1       2       1       1       2
       1       1       2       1       1       2       1       1       2       1
       1       2       1       1       2       1       1       2       1       1
       2       1       1       2       1       1       2       1       1       2
       1       1       2       1       1       2       1       1       2       1
       1       2       1       1       2       1       1       2       1       1
       2       1       1       2       1       1       2       1       1       2
       1       1       2       1       1       2       1       1       2       1
       1       2       1       1       2       1       1       2       1       1
       2       1       1       2       1       1       2       1       1       2
       1       1       2       1       1       2       1       1       2       1
       1       2       1       1       2       1       1       2       1       1
       2       1       1       2       1       1       2       1       1       2
       1       1       2       1       1       2       1       1       2       1
       1       2       1       1       2       1       1       2       1       1
       2       1       1       2       1       1       2       1       1       2
       1       1       2       1       1       2       1       1       2       1
       1       2       1       1       2       1       1       2       1       1
       2       1       1       2       1       1       2       1       1       2
       1       1       2       1       1       2       1       1       2       1
       1       2       1       1       2       1       1       2       1       1
       2       1       1       2       1       1       2       1       1       2
       1       1       2       1       1       2       1       1       2       1
       1       2       1       1       2       1       1       2       1       1
       2       1       1       2       1       1       2       1       1       2
       1       1       2       1       1       2       1       1       2       1
       1       2       1       1       2       1       1       2       1       1
       2       1       1       2       1       1       2       1       1       2
       1       1       2       1       1       2       1       1       2       1
       1       2       1       1       2       1       1       2       1       1
       2       1       1       2       1       1       2       1       1       2
       1       1       2       1       1       2       1       1       2       1
       1       2       1       1       2       1       1       2       1       1
       2       1       1       2       1       1       2       1       1       2
       1       1       2       1       1       2       1       1       2       1
       1       2       1       1
%FLAG POL_GAUSS_COVALENT_ATOMS_LIST
%COMMENT   dimension = (2048=512*4)
%FORMAT(10I8)
      10      11       9       9      13      14      12      12      16      17
      15      15      19      20      18      18      22      23      21      21
      25      26      24      24      28      29      27      27      31      32
      30      30      34      35      33      33      37      38      36      36
      40      41      39      39      43      44      42      42      46      47
      45      45      49      50      48      48      52      53      51      51
      55      56      54      54      58      59      57      57      61      62
      60      60      64      65      63      63      67      68      66      66
      70      71      69      69      73      74      72      72      76      77
      75      75      79      80      78      78      82      83      81      81
      85      86      84      84      88      89      87      87      91      92
      90      90      94      95      93      93      97      98      96      96
     100     101      99      99     103     104     102     102     106     107
     105     105     109     110     108     108     112     113     111     111
     115     116     114     114     118     119     117     117     121     122
     120     120     124     125     123     123     127     128     126     126
     130     131     129     129     133     134     132     132     136     137
     135     135     139     140     138     138     142     143     141     141
     145     146     144     144     148     149     147     147     151     152
     150     150     154     155     153     153     157     158     156     156
     160     161     159     159     163     164     162     162     166     167
     165     165     169     170     168     168     172     173     171     171
     175     176     174     174     178     179     177     177     181     182
     180     180     184     185     183     183     187     188     186     186
     190     191     189     189     193     194     192     192     196     197
     195     195     199     200     198     198     202     203     201     201
     205     206     204     204     208     209     207     207     211     212
     210     210     214     215     213     213     217     218     216     216
     220     221     219     219     223     224     222     222     226     227
     225     225     229     230     228     228     232     233     231     231
     235     236     234     234     238     239     237     237     241     242
     240     240     244     245     243     243     247     248     246     246
     250     251     249     249     253     254     252     252     256     257
     255     255     259     260     258     258     262     263     261     261
     265     266     264     264     268     269     267     267     271     272
     270     270     274     275     273     273     277     278     276     276
     280     281     279     279     283     284     282     282     286     287
     285     285     289     290     288     288     292     293     291     291
     295     296     294     294     298     299     297     297     301     302
     300     300     304     305     303     303     307     308     306     306
     310     311     309     309     313     314     312     312     316     317
     315     315     319     320     318     318     322     323     321     321
     325     326     324     324     328     329     327     327     331     332
     330     330     334     335     333     333     337     338     336     336
     340     341     339     339     343     344     342     342     346     347
     345     345     349     350     348     348     352     353     351     351
     355     356     354     354     358     359     357     357     361     362
     360     360     364     365     363     363     367     368     366     366
     370     371     369     369     373     374     372     372     376     377
     375     375     379     380     378     378     382     383     381     381
     385     386     384     384     388     389     387     387     391     392
     390     390     394     395     393     393     397     398     396     396
     400     401     399     399     403     404     402     402     406     407
     405     405     409     410     408     408     412     413     411     411
     415     416     414     414     418     419     417     417     421     422
     420     420     424     425     423     423     427     428     426     426
     430     431     429     429     433     434     432     432     436     437
     435     435     439     440     438     438     442     443     441     441
     445     446     444     444     448     449     447     447     451     452
     450     450     454     455     453     453     457     458     456     456
     460     461     459     459     463     464     462     462     466     467
     465     465     469     470     468     468     472     473     471     471
     475     476     474     474     478     479     477     477     481     482
     480     480     484     485     483     483     487     488     486     486
     490     491     489     489     493     494     492     492     496     497
     495     495     499     500     498     498     502     503     501     501
     505     506     504     504     508     509     507     507     511     512
     510     510     514     515     513     513     517     518     516     516
     520     521     519     519     523     524     522     522     526     527
     525     525     529     530     528     528     532     533     531     531
     535     536     534     534     538     539     537     537     541     542
     540     540     544     545     543     543     547     548     546     546
     550     551     549     549     553     554     552     552     556     557
     555     555     559     560     558     558     562     563     561     561
     565     566     564     564     568     569     567     567     571     572
     570     570     574     575     573     573     577     578     576     576
     580     581     579     579     583     584     582     582     586     587
     585     585     589     590     588     588     592     593     591     591
     595     596     594     594     598     599     597     597     601     602
     600     600     604     605     603     603     607     608     606     606
     610     611     609     609     613     614     612     612     616     617
     615     615     619     620     618     618     622     623     621     621
     625     626     624     624     628     629     627     627     631     632
     630     630     634     635     633     633     637     638     636     636
     640     641     639     639     643     644     642     642     646     647
     645     645     649     650     648     648     652     653     651     651
     655     656     654     654     658     659     657     657     661     662
     660     660     664     665     663     663     667     668     666     666
     670     671     669     669     673     674     672     672     676     677
     675     675     679     680     678     678     682     683     681     681
     685     686     684     684     688     689     687     687     691     692
     690     690     694     695     693     693     697     698     696     696
     700     701     699     699     703     704     702     702     706     707
     705     705     709     710     708     708     712     713     711     711
     715     716     714     714     718     719     717     717     721     722
     720     720     724     725     723     723     727     728     726     726
     730     731     729     729     733     734     732     732     736     737
     735     735     739     740     738     738     742     743     741     741
     745     746     744     744     748     749     747     747     751     752
     750     750     754     755     753     753     757     758     756     756
     760     761     759     759     763     764     762     762     766     767
     765     765     769     770     768     768     772     773     771     771
     775     776     774     774     778     779     777     777     781     782
     780     780     784     785     783     783     787     788     786     786
     790     791     789     789     793     794     792     792     796     797
     795     795     799     800     798     798     802     803     801     801
     805     806     804     804     808     809     807     807     811     812
     810     810     814     815     813     813     817     818     816     816
     820     821     819     819     823     824     822     822     826     827
     825     825     829     830     828     828     832     833     831     831
     835     836     834     834     838     839     837     837     841     842
     840     840     844     845     843     843     847     848     846     846
     850     851     849     849     853     854     852     852     856     857
     855     855     859     860     858     858     862     863     861     861
     865     866     864     864     868     869     867     867     871     872
     870     870     874     875     873     873     877     878     876     876
     880     881     879     879     883     884     882     882     886     887
     885     885     889     890     888     888     892     893     891     891
     895     896     894     894     898     899     897     897     901     902
     900     900     904     905     903     903     907     908     906     906
     910     911     909     909     913     914     912     912     916     917
     915     915     919     920     918     918     922     923     921     921
     925     926     924     924     928     929     927     927     931     932
     930     930     934     935     933     933     937     938     936     936
     940     941     939     939     943     944     942     942     946     947
     945     945     949     950     948     948     952     953     951     951
     955     956     954     954     958     959     957     957     961     962
     960     960     964     965     963     963     967     968     966     966
     970     971     969     969     973     974     972     972     976     977
     975     975     979     980     978     978     982     983     981     981
     985     986     984     984     988     989     987     987     991     992
     990     990     994     995     993     993     997     998     996     996
    1000    1001     999     999    1003    1004    1002    1002    1006    1007
    1005    1005    1009    1010    1008    1008    1012    1013    1011    1011
    1015    1016    1014    1014    1018    1019    1017    1017    1021    1022
    1020    1020    1024    1025    1023    1023    1027    1028    1026    1026
    1030    1031    1029    1029    1033    1034    1032    1032    1036    1037
    1035    1035    1039    1040    1038    1038    1042    1043    1041    1041
    1045    1046    1044    1044    1048    1049    1047    1047    1051    1052
    1050    1050    1054    1055    1053    1053    1057    1058    1056    1056
    1060    1061    1059    1059    1063    1064    1062    1062    1066    1067
    1065    1065    1069    1070    1068    1068    1072    1073    1071    1071
    1075    1076    1074    1074    1078    1079    1077    1077    1081    1082
    1080    1080    1084    1085    1083    1083    1087    1088    1086    1086
    1090    1091    1089    1089    1093    1094    1092    1092    1096    1097
    1095    1095    1099    1100    1098    1098    1102    1103    1101    1101
    1105    1106    1104    1104    1108    1109    1107    1107    1111    1112
    1110    1110    1114    1115    1113    1113    1117    1118    1116    1116
    1120    1121    1119    1119    1123    1124    1122    1122    1126    1127
    1125    1125    1129    1130    1128    1128    1132    1133    1131    1131
    1135    1136    1134    1134    1138    1139    1137    1137    1141    1142
    1140    1140    1144    1145    1143    1143    1147    1148    1146    1146
    1150    1151    1149    1149    1153    1154    1152    1152    1156    1157
    1155    1155    1159    1160    1158    1158    1162    1163    1161    1161
    1165    1166    1164    1164    1168    1169    1167    1167    1171    1172
    1170    1170    1174    1175    1173    1173    1177    1178    1176    1176
    1180    1181    1179    1179    1183    1184    1182    1182    1186    1187
    1185    1185    1189    1190    1188    1188    1192    1193    1191    1191
    1195    1196    1194    1194    1198    1199    1197    1197    1201    1202
    1200    1200    1204    1205    1203    1203    1207    1208    1206    1206
    1210    1211    1209    1209    1213    1214    1212    1212    1216    1217
    1215    1215    1219    1220    1218    1218    1222    1223    1221    1221
    1225    1226    1224    1224    1228    1229    1227    1227    1231    1232
    1230    1230    1234    1235    1233    1233    1237    1238    1236    1236
    1240    1241    1239    1239    1243    1244    1242    1242    1246    1247
    1245    1245    1249    1250    1248    1248    1252    1253    1251    1251
    1255    1256    1254    1254    1258    1259    1257    1257    1261    1262
    1260    1260    1264    1265    1263    1263    1267    1268    1266    1266
    1270    1271    1269    1269    1273    1274    1272    1272    1276    1277
    1275    1275    1279    1280    1278    1278    1282    1283    1281    1281
    1285    1286    1284    1284    1288    1289    1287    1287    1291    1292
    1290    1290    1294    1295    1293    1293    1297    1298    1296    1296
    1300    1301    1299    1299    1303    1304    1302    1302    1306    1307
    1305    1305    1309    1310    1308    1308    1312    1313    1311    1311
    1315    1316    1314    1314    1318    1319    1317    1317    1321    1322
    1320    1320    1324    1325    1323    1323    1327    1328    1326    1326
    1330    1331    1329    1329    1333    1334    1332    1332    1336    1337
    1335    1335    1339    1340    1338    1338    1342    1343    1341    1341
    1345    1346    1344    1344    1348    1349    1347    1347    1351    1352
    1350    1350    1354    1355    1353    1353    1357    1358    1356    1356
    1360    1361    1359    1359    1363    1364    1362    1362    1366    1367
    1365    1365    1369    1370    1368    1368    1372    1373    1371    1371
    1375    1376    1374    1374    1378    1379    1377    1377    1381    1382
    1380    1380    1384    1385    1383    1383    1387    1388    1386    1386
    1390    1391    1389    1389    1393    1394    1392    1392    1396    1397
    1395    1395    1399    1400    1398    1398    1402    1403    1401    1401
    1405    1406    1404    1404    1408    1409    1407    1407    1411    1412
    1410    1410    1414    1415    1413    1413    1417    1418    1416    1416
    1420    1421    1419    1419    1423    1424    1422    1422    1426    1427
    1425    1425    1429    1430    1428    1428    1432    1433    1431    1431
    1435    1436    1434    1434    1438    1439    1437    1437    1441    1442
    1440    1440    1444    1445    1443    1443    1447    1448    1446    1446
    1450    1451    1449    1449    1453    1454    1452    1452    1456    1457
    1455    1455    1459    1460    1458    1458    1462    1463    1461    1461
    1465    1466    1464    1464    1468    1469    1467    1467    1471    1472
    1470    1470    1474    1475    1473    1473    1477    1478    1476    1476
    1480    1481    1479    1479    1483    1484    1482    1482    1486    1487
    1485    1485    1489    1490    1488    1488    1492    1493    1491    1491
    1495    1496    1494    1494    1498    1499    1497    1497    1501    1502
    1500    1500    1504    1505    1503    1503    1507    1508    1506    1506
    1510    1511    1509    1509    1513    1514    1512    1512    1516    1517
    1515    1515    1519    1520    1518    1518    1522    1523    1521    1521
    1525    1526    1524    1524    1528    1529    1527    1527    1531    1532
    1530    1530    1534    1535    1533    1533    1537    1538    1536    1536
    1540    1541    1539    1539    1543    1544    1542    1542    1546    1547
    1545    1545    1549    1550    1548    1548    1552    1553    1551    1551
    1555    1556    1554    1554    1558    1559    1557    1557    1561    1562
    1560    1560    1564    1565    1563    1563    1567    1568    1566    1566
    1570    1571    1569    1569    1573    1574    1572    1572    1576    1577
    1575    1575    1579    1580    1578    1578    1582    1583    1581    1581
    1585    1586    1584    1584    1588    1589    1587    1587    1591    1592
    1590    1590    1594    1595    1593    1593    1597    1598    1596    1596
    1600    1601    1599    1599    1603    1604    1602    1602    1606    1607
    1605    1605    1609    1610    1608    1608    1612    1613    1611    1611
    1615    1616    1614    1614    1618    1619    1617    1617    1621    1622
    1620    1620    1624    1625    1623    1623    1627    1628    1626    1626
    1630    1631    1629    1629    1633    1634    1632    1632    1636    1637
    1635    1635    1639    1640    1638    1638    1642    1643    1641    1641
    1645    1646    1644    1644    1648    1649    1647    1647    1651    1652
    1650    1650    1654    1655    1653    1653    1657    1658    1656    1656
    1660    1661    1659    1659    1663    1664    1662    1662    1666    1667
    1665    1665    1669    1670    1668    1668    1672    1673    1671    1671
    1675    1676    1674    1674    1678    1679    1677    1677    1681    1682
    1680    1680    1684    1685    1683    1683    1687    1688    1686    1686
    1690    1691    1689    1689    1693    1694    1692    1692    1696    1697
    1695    1695    1699    1700    1698    1698    1702    1703    1701    1701
    1705    1706    1704    1704    1708    1709    1707    1707    1711    1712
    1710    1710    1714    1715    1713    1713    1717    1718    1716    1716
    1720    1721    1719    1719    1723    1724    1722    1722    1726    1727
    1725    1725    1729    1730    1728    1728    1732    1733    1731    1731
    1735    1736    1734    1734    1738    1739    1737    1737    1741    1742
    1740    1740    1744    1745    1743    1743    1747    1748    1746    1746
    1750    1751    1749    1749    1753    1754    1752    1752    1756    1757
    1755    1755    1759    1760    1758    1758    1762    1763    1761    1761
    1765    1766    1764    1764    1768    1769    1767    1767    1771    1772
    1770    1770    1774    1775    1773    1773    1777    1778    1776    1776
    1780    1781    1779    1779    1783    1784    1782    1782    1786    1787
    1785    1785    1789    1790    1788    1788    1792    1793    1791    1791
    1795    1796    1794    1794    1798    1799    1797    1797    1801    1802
    1800    1800    1804    1805    1803    1803    1807    1808    1806    1806
    1810    1811    1809    1809    1813    1814    1812    1812    1816    1817
    1815    1815    1819    1820    1818    1818    1822    1823    1821    1821
    1825    1826    1824    1824    1828    1829    1827    1827    1831    1832
    1830    1830    1834    1835    1833    1833    1837    1838    1836    1836
    1840    1841    1839    1839    1843    1844    1842    1842
%FLAG POL_GAUSS_COVALENT_DIPOLES_LIST
%COMMENT   unit: e-Angstrom
%COMMENT   dimension = (2048=512*4)
%FORMAT(5E16.8)
 -1.94631779E-01 -1.94631779E-01  8.74177904E-02  8.74177904E-02 -1.94631779E-01
 -1.94631779E-01  8.74177904E-02  8.74177904E-02 -1.94631779E-01 -1.94631779E-01
  8.74177904E-02  8.74177904E-02 -1.94631779E-01 -1.94631779E-01  8.74177904E-02
  8.74177904E-02 -1.94631779E-01 -1.94631779E-01  8.74177904E-02  8.74177904E-02
 -1.94631779E-01 -1.94631779E-01  8.74177904E-02  8.74177904E-02 -1.94631779E-01
 -1.94631779E-01  8.74177904E-02  8.74177904E-02 -1.94631779E-01 -1.94631779E-01
  8.74177904E-02  8.74177904E-02 -1.94631779E-01 -1.94631779E-01  8.74177904E-02
  8.74177904E-02 -1.94631779E-01 -1.94631779E-01  8.74177904E-02  8.74177904E-02
 -1.94631779E-01 -1.94631779E-01  8.74177904E-02  8.74177904E-02 -1.94631779E-01
 -1.94631779E-01  8.74177904E-02  8.74177904E-02 -1.94631779E-01 -1.94631779E-01
  8.74177904E-02  8.74177904E-02 -1.94631779E-01 -1.94631779E-01  8.74177904E-02
  8.74177904E-02 -1.94631779E-01 -1.94631779E-01  8.74177904E-02  8.74177904E-02
 -1.94631779E-01 -1.94631779E-01  8.74177904E-02  8.74177904E-02 -1.94631779E-01
 -1.94631779E-01  8.74177904E-02  8.74177904E-02 -1.94631779E-01 -1.94631779E-01
  8.74177904E-02  8.74177904E-02 -1.94631779E-01 -1.94631779E-01  8.74177904E-02
  8.74177904E-02 -1.94631779E-01 -1.94631779E-01  8.74177904E-02  8.74177904E-02
 -1.94631779E-01 -1.94631779E-01  8.74177904E-02  8.74177904E-02 -1.94631779E-01
 -1.94631779E-01  8.74177904E-02  8.74177904E-02 -1.94631779E-01 -1.94631779E-01
  8.74177904E-02  8.74177904E-02 -1.94631779E-01 -1.94631779E-01  8.74177904E-02
  8.74177904E-02 -1.94631779E-01 -1.94631779E-01  8.74177904E-02  8.74177904E-02
 -1.94631779E-01 -1.94631779E-01  8.74177904E-02  8.74177904E-02 -1.94631779E-01
 -1.94631779E-01  8.74177904E-02  8.74177904E-02 -1.94631779E-01 -1.94631779E-01
  8.74177904E-02  8.74177904E-02 -1.94631779E-01 -1.94631779E-01  8.74177904E-02
  8.74177904E-02 -1.94631779E-01 -1.94631779E-01  8.74177904E-02  8.74177904E-02
 -1.94631779E-01 -1.94631779E-01  8.74177904E-02  8.74177904E-02 -1.94631779E-01
 -1.94631779E-01  8.74177904E-02  8.74177904E-02 -1.94631779E-01 -1.94631779E-01
  8.74177904E-02  8.74177904E-02 -1.94631779E-01 -1.94631779E-01  8.74177904E-02
  8.74177904E-02 -1.94631779E-01 -1.94631779E-01  8.74177904E-02  8.74177904E-02
 -1.94631779E-01 -1.94631779E-01  8.74177904E-02  8.74177904E-02 -1.94631779E-01
 -1.94631779E-01  8.74177904E-02  8.74177904E-02 -1.94631779E-01 -1.94631779E-01
  8.74177904E-02  8.74177904E-02 -1.94631779E-01 -1.94631779E-01  8.74177904E-02
  8.74177904E-02 -1.94631779E-01 -1.94631779E-01  8.74177904E-02  8.74177904E-02
 -1.94631779E-01 -1.94631779E-01  8.74177904E-02  8.74177904E-02 -1.94631779E-01
 -1.94631779E-01  8.74177904E-02  8.74177904E-02 -1.94631779E-01 -1.94631779E-01
  8.74177904E-02  8.74177904E-02 -1.94631779E-01 -1.94631779E-01  8.74177904E-02
  8.74177904E-02 -1.94631779E-01 -1.94631779E-01  8.74177904E-02  8.74177904E-02
 -1.94631779E-01 -1.94631779E-01  8.74177904E-02  8.74177904E-02 -1.94631779E-01
 -1.94631779E-01  8.74177904E-02  8.74177904E-02 -1.94631779E-01 -1.94631779E-01
  8.74177904E-02  8.74177904E-02 -1.94631779E-01 -1.94631779E-01  8.74177904E-02
  8.74177904E-02 -1.94631779E-01 -1.94631779E-01  8.74177904E-02  8.74177904E-02
 -1.94631779E-01 -1.94631779E-01  8.74177904E-02  8.74177904E-02 -1.94631779E-01
 -1.94631779E-01  8.74177904E-02  8.74177904E-02 -1.94631779E-01 -1.94631779E-01
  8.74177904E-02  8.74177904E-02 -1.94631779E-01 -1.94631779E-01  8.74177904E-02
  8.74177904E-02 -1.94631779E-01 -1.94631779E-01  8.74177904E-02  8.74177904E-02
 -1.94631779E-01 -1.94631779E-01  8.74177904E-02  8.74177904E-02 -1.94631779E-01
 -1.94631779E-01  8.74177904E-02  8.74177904E-02 -1.94631779E-01 -1.94631779E-01
  8.74177904E-02  8.74177904E-02 -1.94631779E-01 -1.94631779E-01  8.74177904E-02
  8.74177904E-02 -1.94631779E-01 -1.94631779E-01  8.74177904E-02  8.74177904E-02
 -1.94631779E-01 -1.94631779E-01  8.74177904E-02  8.74177904E-02 -1.94631779E-01
 -1.94631779E-01  8.74177904E-02  8.74177904E-02 -1.94631779E-01 -1.94631779E-01
  8.74177904E-02  8.74177904E-02 -1.94631779E-01 -1.94631779E-01  8.74177904E-02
  8.74177904E-02 -1.94631779E-01 -1.94631779E-01  8.74177904E-02  8.74177904E-02
 -1.94631779E-01 -1.94631779E-01  8.74177904E-02  8.74177904E-02 -1.94631779E-01
 -1.94631779E-01  8.74177904E-02  8.74177904E-02 -1.94631779E-01 -1.94631779E-01
  8.74177904E-02  8.74177904E-02 -1.94631779E-01 -1.94631779E-01  8.74177904E-02
  8.74177904E-02 -1.94631779E-01 -1.94631779E-01  8.74177904E-02  8.74177904E-02
 -1.94631779E-01 -1.94631779E-01  8.74177904E-02  8.74177904E-02 -1.94631779E-01
 -1.94631779E-01  8.74177904E-02  8.74177904E-02 -1.94631779E-01 -1.94631779E-01
  8.74177904E-02  8.74177904E-02 -1.94631779E-01 -1.94631779E-01  8.74177904E-02
  8.74177904E-02 -1.94631779E-01 -1.94631779E-01  8.74177904E-02  8.74177904E-02
 -1.94631779E-01 -1.94631779E-01  8.74177904E-02  8.74177904E-02 -1.94631779E-01
 -1.94631779E-01  8.74177904E-02  8.74177904E-02 -1.94631779E-01 -1.94631779E-01
  8.74177904E-02  8.74177904E-02 -1.94631779E-01 -1.94631779E-01  8.74177904E-02
  8.74177904E-02 -1.94631779E-01 -1.94631779E-01  8.74177904E-02  8.74177904E-02
 -1.94631779E-01 -1.94631779E-01  8.74177904E-02  8.74177904E-02 -1.94631779E-01
 -1.94631779E-01  8.74177904E-02  8.74177904E-02 -1.94631779E-01 -1.94631779E-01
  8.74177904E-02  8.74177904E-02 -1.94631779E-01 -1.94631779E-01  8.74177904E-02
  8.74177904E-02 -1.94631779E-01 -1.94631779E-01  8.74177904E-02  8.74177904E-02
 -1.94631779E-01 -1.94631779E-01  8.74177904E-02  8.74177904E-02 -1.94631779E-01
 -1.94631779E-01  8.74177904E-02  8.74177904E-02 -1.94631779E-01 -1.94631779E-01
  8.74177904E-02  8.74177904E-02 -1.94631779E-01 -1.94631779E-01  8.74177904E-02
  8.74177904E-02 -1.94631779E-01 -1.94631779E-01  8.74177904E-02  8.74177904E-02
 -1.94631779E-01 -1.94631779E-01  8.74177904E-02  8.74177904E-02 -1.94631779E-01
 -1.94631779E-01  8.74177904E-02  8.74177904E-02 -1.94631779E-01 -1.94631779E-01
  8.74177904E-02  8.74177904E-02 -1.94631779E-01 -1.94631779E-01  8.74177904E-02
  8.74177904E-02 -1.94631779E-01 -1.94631779E-01  8.74177904E-02  8.74177904E-02
 -1.94631779E-01 -1.94631779E-01  8.74177904E-02  8.74177904E-02 -1.94631779E-01
 -1.94631779E-01  8.74177904E-02  8.74177904E-02 -1.94631779E-01 -1.94631779E-01
  8.74177904E-02  8.74177904E-02 -1.94631779E-01 -1.94631779E-01  8.74177904E-02
  8.74177904E-02 -1.94631779E-01 -1.94631779E-01  8.74177904E-02  8.74177904E-02
 -1.94631779E-01 -1.94631779E-01  8.74177904E-02  8.74177904E-02 -1.94631779E-01
 -1.94631779E-01  8.74177904E-02  8.74177904E-02 -1.94631779E-01 -1.94631779E-01
  8.74177904E-02  8.74177904E-02 -1.94631779E-01 -1.94631779E-01  8.74177904E-02
  8.74177904E-02 -1.94631779E-01 -1.94631779E-01  8.74177904E-02  8.74177904E-02
 -1.94631779E-01 -1.94631779E-01  8.74177904E-02  8.74177904E-02 -1.94631779E-01
 -1.94631779E-01  8.74177904E-02  8.74177904E-02 -1.94631779E-01 -1.94631779E-01
  8.74177904E-02  8.74177904E-02 -1.94631779E-01 -1.94631779E-01  8.74177904E-02
  8.74177904E-02 -1.94631779E-01 -1.94631779E-01  8.74177904E-02  8.74177904E-02
 -1.94631779E-01 -1.94631779E-01  8.74177904E-02  8.74177904E-02 -1.94631779E-01
 -1.94631779E-01  8.74177904E-02  8.74177904E-02 -1.94631779E-01 -1.94631779E-01
  8.74177904E-02  8.74177904E-02 -1.94631779E-01 -1.94631779E-01  8.74177904E-02
  8.74177904E-02 -1.94631779E-01 -1.94631779E-01  8.74177904E-02  8.74177904E-02
 -1.94631779E-01 -1.94631779E-01  8.74177904E-02  8.74177904E-02 -1.94631779E-01
 -1.94631779E-01  8.74177904E-02  8.74177904E-02 -1.94631779E-01 -1.94631779E-01
  8.74177904E-02  8.74177904E-02 -1.94631779E-01 -1.94631779E-01  8.74177904E-02
  8.74177904E-02 -1.94631779E-01 -1.94631779E-01  8.74177904E-02  8.74177904E-02
 -1.94631779E-01 -1.94631779E-01  8.74177904E-02  8.74177904E-02 -1.94631779E-01
 -1.94631779E-01  8.74177904E-02  8.74177904E-02 -1.94631779E-01 -1.94631779E-01
  8.74177904E-02  8.74177904E-02 -1.94631779E-01 -1.94631779E-01  8.74177904E-02
  8.74177904E-02 -1.94631779E-01 -1.94631779E-01  8.74177904E-02  8.74177904E-02
 -1.94631779E-01 -1.94631779E-01  8.74177904E-02  8.74177904E-02 -1.94631779E-01
 -1.94631779E-01  8.74177904E-02  8.74177904E-02 -1.94631779E-01 -1.94631779E-01
  8.74177904E-02  8.74177904E-02 -1.94631779E-01 -1.94631779E-01  8.74177904E-02
  8.74177904E-02 -1.94631779E-01 -1.94631779E-01  8.74177904E-02  8.74177904E-02
 -1.94631779E-01 -1.94631779E-01  8.74177904E-02  8.74177904E-02 -1.94631779E-01
 -1.94631779E-01  8.74177904E-02  8.74177904E-02 -1.94631779E-01 -1.94631779E-01
  8.74177904E-02  8.74177904E-02 -1.94631779E-01 -1.94631779E-01  8.74177904E-02
  8.74177904E-02 -1.94631779E-01 -1.94631779E-01  8.74177904E-02  8.74177904E-02
 -1.94631779E-01 -1.94631779E-01  8.74177904E-02  8.74177904E-02 -1.94631779E-01
 -1.94631779E-01  8.74177904E-02  8.74177904E-02 -1.94631779E-01 -1.94631779E-01
  8.74177904E-02  8.74177904E-02 -1.94631779E-01 -1.94631779E-01  8.74177904E-02
  8.74177904E-02 -1.94631779E-01 -1.94631779E-01  8.74177904E-02  8.74177904E-02
 -1.94631779E-01 -1.94631779E-01  8.74177904E-02  8.74177904E-02 -1.94631779E-01
 -1.94631779E-01  8.74177904E-02  8.74177904E-02 -1.94631779E-01 -1.94631779E-01
  8.74177904E-02  8.74177904E-02 -1.94631779E-01 -1.94631779E-01  8.74177904E-02
  8.74177904E-02 -1.94631779E-01 -1.94631779E-01  8.74177904E-02  8.74177904E-02
 -1.94631779E-01 -1.94631779E-01  8.74177904E-02  8.74177904E-02 -1.94631779E-01
 -1.94631779E-01  8.74177904E-02  8.74177904E-02 -1.94631779E-01 -1.94631779E-01
  8.74177904E-02  8.74177904E-02 -1.94631779E-01 -1.94631779E-01  8.74177904E-02
  8.74177904E-02 -1.94631779E-01 -1.94631779E-01  8.74177904E-02  8.74177904E-02
 -1.94631779E-01 -1.94631779E-01  8.74177904E-02  8.74177904E-02 -1.94631779E-01
 -1.94631779E-01  8.74177904E-02  8.74177904E-02 -1.94631779E-01 -1.94631779E-01
  8.74177904E-02  8.74177904E-02 -1.94631779E-01 -1.94631779E-01  8.74177904E-02
  8.74177904E-02 -1.94631779E-01 -1.94631779E-01  8.74177904E-02  8.74177904E-02
 -1.94631779E-01 -1.94631779E-01  8.74177904E-02  8.74177904E-02 -1.94631779E-01
 -1.94631779E-01  8.74177904E-02  8.74177904E-02 -1.94631779E-01 -1.94631779E-01
  8.74177904E-02  8.74177904E-02 -1.94631779E-01 -1.94631779E-01  8.74177904E-02
  8.74177904E-02 -1.94631779E-01 -1.94631779E-01  8.74177904E-02  8.74177904E-02
 -1.94631779E-01 -1.94631779E-01  8.74177904E-02  8.74177904E-02 -1.94631779E-01
 -1.94631779E-01  8.74177904E-02  8.74177904E-02 -1.94631779E-01 -1.94631779E-01
  8.74177904E-02  8.74177904E-02 -1.94631779E-01 -1.94631779E-01  8.74177904E-02
  8.74177904E-02 -1.94631779E-01 -1.94631779E-01  8.74177904E-02  8.74177904E-02
 -1.94631779E-01 -1.94631779E-01  8.74177904E-02  8.74177904E-02 -1.94631779E-01
 -1.94631779E-01  8.74177904E-02  8.74177904E-02 -1.94631779E-01 -1.94631779E-01
  8.74177904E-02  8.74177904E-02 -1.94631779E-01 -1.94631779E-01  8.74177904E-02
  8.74177904E-02 -1.94631779E-01 -1.94631779E-01  8.74177904E-02  8.74177904E-02
 -1.94631779E-01 -1.94631779E-01  8.74177904E-02  8.74177904E-02 -1.94631779E-01
 -1.94631779E-01  8.74177904E-02  8.74177904E-02 -1.94631779E-01 -1.94631779E-01
  8.74177904E-02  8.74177904E-02 -1.94631779E-01 -1.94631779E-01  8.74177904E-02
  8.74177904E-02 -1.94631779E-01 -1.94631779E-01  8.74177904E-02  8.74177904E-02
 -1.94631779E-01 -1.94631779E-01  8.74177904E-02  8.74177904E-02 -1.94631779E-01
 -1.94631779E-01  8.74177904E-02  8.74177904E-02 -1.94631779E-01 -1.94631779E-01
  8.74177904E-02  8.74177904E-02 -1.94631779E-01 -1.94631779E-01  8.74177904E-02
  8.74177904E-02 -1.94631779E-01 -1.94631779E-01  8.74177904E-02  8.74177904E-02
 -1.94631779E-01 -1.94631779E-01  8.74177904E-02  8.74177904E-02 -1.94631779E-01
 -1.94631779E-01  8.74177904E-02  8.74177904E-02 -1.94631779E-01 -1.94631779E-01
  8.74177904E-02  8.74177904E-02 -1.94631779E-01 -1.94631779E-01  8.74177904E-02
  8.74177904E-02 -1.94631779E-01 -1.94631779E-01  8.74177904E-02  8.74177904E-02
 -1.94631779E-01 -1.94631779E-01  8.74177904E-02  8.74177904E-02 -1.94631779E-01
 -1.94631779E-01  8.74177904E-02  8.74177904E-02 -1.94631779E-01 -1.94631779E-01
  8.74177904E-02  8.74177904E-02 -1.94631779E-01 -1.94631779E-01  8.74177904E-02
  8.74177904E-02 -1.94631779E-01 -1.94631779E-01  8.74177904E-02  8.74177904E-02
 -1.94631779E-01 -1.94631779E-01  8.74177904E-02  8.74177904E-02 -1.94631779E-01
 -1.94631779E-01  8.74177904E-02  8.74177904E-02 -1.94631779E-01 -1.94631779E-01
  8.74177904E-02  8.74177904E-02 -1.94631779E-01 -1.94631779E-01  8.74177904E-02
  8.74177904E-02 -1.94631779E-01 -1.94631779E-01  8.74177904E-02  8.74177904E-02
 -1.94631779E-01 -1.94631779E-01  8.74177904E-02  8.74177904E-02 -1.94631779E-01
 -1.94631779E-01  8.74177904E-02  8.74177904E-02 -1.94631779E-01 -1.94631779E-01
  8.74177904E-02  8.74177904E-02 -1.94631779E-01 -1.94631779E-01  8.74177904E-02
  8.74177904E-02 -1.94631779E-01 -1.94631779E-01  8.74177904E-02  8.74177904E-02
 -1.94631779E-01 -1.94631779E-01  8.74177904E-02  8.74177904E-02 -1.94631779E-01
 -1.94631779E-01  8.74177904E-02  8.74177904E-02 -1.94631779E-01 -1.94631779E-01
  8.74177904E-02  8.74177904E-02 -1.94631779E-01 -1.94631779E-01  8.74177904E-02
  8.74177904E-02 -1.94631779E-01 -1.94631779E-01  8.74177904E-02  8.74177904E-02
 -1.94631779E-01 -1.94631779E-01  8.74177904E-02  8.74177904E-02 -1.94631779E-01
 -1.94631779E-01  8.74177904E-02  8.74177904E-02 -1.94631779E-01 -1.94631779E-01
  8.74177904E-02  8.74177904E-02 -1.94631779E-01 -1.94631779E-01  8.74177904E-02
  8.74177904E-02 -1.94631779E-01 -1.94631779E-01  8.74177904E-02  8.74177904E-02
 -1.94631779E-01 -1.94631779E-01  8.74177904E-02  8.74177904E-02 -1.94631779E-01
 -1.94631779E-01  8.74177904E-02  8.74177904E-02 -1.94631779E-01 -1.94631779E-01
  8.74177904E-02  8.74177904E-02 -1.94631779E-01 -1.94631779E-01  8.74177904E-02
  8.74177904E-02 -1.94631779E-01 -1.94631779E-01  8.74177904E-02  8.74177904E-02
 -1.94631779E-01 -1.94631779E-01  8.74177904E-02  8.74177904E-02 -1.94631779E-01
 -1.94631779E-01  8.74177904E-02  8.74177904E-02 -1.94631779E-01 -1.94631779E-01
  8.74177904E-02  8.74177904E-02 -1.94631779E-01 -1.94631779E-01  8.74177904E-02
  8.74177904E-02 -1.94631779E-01 -1.94631779E-01  8.74177904E-02  8.74177904E-02
 -1.94631779E-01 -1.94631779E-01  8.74177904E-02  8.74177904E-02 -1.94631779E-01
 -1.94631779E-01  8.74177904E-02  8.74177904E-02 -1.94631779E-01 -1.94631779E-01
  8.74177904E-02  8.74177904E-02 -1.94631779E-01 -1.94631779E-01  8.74177904E-02
  8.74177904E-02 -1.94631779E-01 -1.94631779E-01  8.74177904E-02  8.74177904E-02
 -1.94631779E-01 -1.94631779E-01  8.74177904E-02  8.74177904E-02 -1.94631779E-01
 -1.94631779E-01  8.74177904E-02  8.74177904E-02 -1.94631779E-01 -1.94631779E-01
  8.74177904E-02  8.74177904E-02 -1.94631779E-01 -1.94631779E-01  8.74177904E-02
  8.74177904E-02 -1.94631779E-01 -1.94631779E-01  8.74177904E-02  8.74177904E-02
 -1.94631779E-01 -1.94631779E-01  8.74177904E-02  8.74177904E-02 -1.94631779E-01
 -1.94631779E-01  8.74177904E-02  8.74177904E-02 -1.94631779E-01 -1.94631779E-01
  8.74177904E-02  8.74177904E-02 -1.94631779E-01 -1.94631779E-01  8.74177904E-02
  8.74177904E-02 -1.94631779E-01 -1.94631779E-01  8.74177904E-02  8.74177904E-02
 -1.94631779E-01 -1.94631779E-01  8.74177904E-02  8.74177904E-02 -1.94631779E-01
 -1.94631779E-01  8.74177904E-02  8.74177904E-02 -1.94631779E-01 -1.94631779E-01
  8.74177904E-02  8.74177904E-02 -1.94631779E-01 -1.94631779E-01  8.74177904E-02
  8.74177904E-02 -1.94631779E-01 -1.94631779E-01  8.74177904E-02  8.74177904E-02
 -1.94631779E-01 -1.94631779E-01  8.74177904E-02  8.74177904E-02 -1.94631779E-01
 -1.94631779E-01  8.74177904E-02  8.74177904E-02 -1.94631779E-01 -1.94631779E-01
  8.74177904E-02  8.74177904E-02 -1.94631779E-01 -1.94631779E-01  8.74177904E-02
  8.74177904E-02 -1.94631779E-01 -1.94631779E-01  8.74177904E-02  8.74177904E-02
 -1.94631779E-01 -1.94631779E-01  8.74177904E-02  8.74177904E-02 -1.94631779E-01
 -1.94631779E-01  8.74177904E-02  8.74177904E-02 -1.94631779E-01 -1.94631779E-01
  8.74177904E-02  8.74177904E-02 -1.94631779E-01 -1.94631779E-01  8.74177904E-02
  8.74177904E-02 -1.94631779E-01 -1.94631779E-01  8.74177904E-02  8.74177904E-02
 -1.94631779E-01 -1.94631779E-01  8.74177904E-02  8.74177904E-02 -1.94631779E-01
 -1.94631779E-01  8.74177904E-02  8.74177904E-02 -1.94631779E-01 -1.94631779E-01
  8.74177904E-02  8.74177904E-02 -1.94631779E-01 -1.94631779E-01  8.74177904E-02
  8.74177904E-02 -1.94631779E-01 -1.94631779E-01  8.74177904E-02  8.74177904E-02
 -1.94631779E-01 -1.94631779E-01  8.74177904E-02  8.74177904E-02 -1.94631779E-01
 -1.94631779E-01  8.74177904E-02  8.74177904E-02 -1.94631779E-01 -1.94631779E-01
  8.74177904E-02  8.74177904E-02 -1.94631779E-01 -1.94631779E-01  8.74177904E-02
  8.74177904E-02 -1.94631779E-01 -1.94631779E-01  8.74177904E-02  8.74177904E-02
 -1.94631779E-01 -1.94631779E-01  8.74177904E-02  8.74177904E-02 -1.94631779E-01
 -1.94631779E-01  8.74177904E-02  8.74177904E-02 -1.94631779E-01 -1.94631779E-01
  8.74177904E-02  8.74177904E-02 -1.94631779E-01 -1.94631779E-01  8.74177904E-02
  8.74177904E-02 -1.94631779E-01 -1.94631779E-01  8.74177904E-02  8.74177904E-02
 -1.94631779E-01 -1.94631779E-01  8.74177904E-02  8.74177904E-02 -1.94631779E-01
 -1.94631779E-01  8.74177904E-02  8.74177904E-02 -1.94631779E-01 -1.94631779E-01
  8.74177904E-02  8.74177904E-02 -1.94631779E-01 -1.94631779E-01  8.74177904E-02
  8.74177904E-02 -1.94631779E-01 -1.94631779E-01  8.74177904E-02  8.74177904E-02
 -1.94631779E-01 -1.94631779E-01  8.74177904E-02  8.74177904E-02 -1.94631779E-01
 -1.94631779E-01  8.74177904E-02  8.74177904E-02 -1.94631779E-01 -1.94631779E-01
  8.74177904E-02  8.74177904E-02 -1.94631779E-01 -1.94631779E-01  8.74177904E-02
  8.74177904E-02 -1.94631779E-01 -1.94631779E-01  8.74177904E-02  8.74177904E-02
 -1.94631779E-01 -1.94631779E-01  8.74177904E-02  8.74177904E-02 -1.94631779E-01
 -1.94631779E-01  8.74177904E-02  8.74177904E-02 -1.94631779E-01 -1.94631779E-01
  8.74177904E-02  8.74177904E-02 -1.94631779E-01 -1.94631779E-01  8.74177904E-02
  8.74177904E-02 -1.94631779E-01 -1.94631779E-01  8.74177904E-02  8.74177904E-02
 -1.94631779E-01 -1.94631779E-01  8.74177904E-02  8.74177904E-02 -1.94631779E-01
 -1.94631779E-01  8.74177904E-02  8.74177904E-02 -1.94631779E-01 -1.94631779E-01
  8.74177904E-02  8.74177904E-02 -1.94631779E-01 -1.94631779E-01  8.74177904E-02
  8.74177904E-02 -1.94631779E-01 -1.94631779E-01  8.74177904E-02  8.74177904E-02
 -1.94631779E-01 -1.94631779E-01  8.74177904E-02  8.74177904E-02 -1.94631779E-01
 -1.94631779E-01  8.74177904E-02  8.74177904E-02 -1.94631779E-01 -1.94631779E-01
  8.74177904E-02  8.74177904E-02 -1.94631779E-01 -1.94631779E-01  8.74177904E-02
  8.74177904E-02 -1.94631779E-01 -1.94631779E-01  8.74177904E-02  8.74177904E-02
 -1.94631779E-01 -1.94631779E-01  8.74177904E-02  8.74177904E-02 -1.94631779E-01
 -1.94631779E-01  8.74177904E-02  8.74177904E-02 -1.94631779E-01 -1.94631779E-01
  8.74177904E-02  8.74177904E-02 -1.94631779E-01 -1.94631779E-01  8.74177904E-02
  8.74177904E-02 -1.94631779E-01 -1.94631779E-01  8.74177904E-02  8.74177904E-02
 -1.94631779E-01 -1.94631779E-01  8.74177904E-02  8.74177904E-02 -1.94631779E-01
 -1.94631779E-01  8.74177904E-02  8.74177904E-02 -1.94631779E-01 -1.94631779E-01
  8.74177904E-02  8.74177904E-02 -1.94631779E-01 -1.94631779E-01  8.74177904E-02
  8.74177904E-02 -1.94631779E-01 -1.94631779E-01  8.74177904E-02  8.74177904E-02
 -1.94631779E-01 -1.94631779E-01  8.74177904E-02  8.74177904E-02 -1.94631779E-01
 -1.94631779E-01  8.74177904E-02  8.74177904E-02 -1.94631779E-01 -1.94631779E-01
  8.74177904E-02  8.74177904E-02 -1.94631779E-01 -1.94631779E-01  8.74177904E-02
  8.74177904E-02 -1.94631779E-01 -1.94631779E-01  8.74177904E-02  8.74177904E-02
 -1.94631779E-01 -1.94631779E-01  8.74177904E-02  8.74177904E-02 -1.94631779E-01
 -1.94631779E-01  8.74177904E-02  8.74177904E-02 -1.94631779E-01 -1.94631779E-01
  8.74177904E-02  8.74177904E-02 -1.94631779E-01 -1.94631779E-01  8.74177904E-02
  8.74177904E-02 -1.94631779E-01 -1.94631779E-01  8.74177904E-02  8.74177904E-02
 -1.94631779E-01 -1.94631779E-01  8.74177904E-02  8.74177904E-02 -1.94631779E-01
 -1.94631779E-01  8.74177904E-02  8.74177904E-02 -1.94631779E-01 -1.94631779E-01
  8.74177904E-02  8.74177904E-02 -1.94631779E-01 -1.94631779E-01  8.74177904E-02
  8.74177904E-02 -1.94631779E-01 -1.94631779E-01  8.74177904E-02  8.74177904E-02
 -1.94631779E-01 -1.94631779E-01  8.74177904E-02  8.74177904E-02 -1.94631779E-01
 -1.94631779E-01  8.74177904E-02  8.74177904E-02 -1.94631779E-01 -1.94631779E-01
  8.74177904E-02  8.74177904E-02 -1.94631779E-01 -1.94631779E-01  8.74177904E-02
  8.74177904E-02 -1.94631779E-01 -1.94631779E-01  8.74177904E-02  8.74177904E-02
 -1.94631779E-01 -1.94631779E-01  8.74177904E-02  8.74177904E-02 -1.94631779E-01
 -1.94631779E-01  8.74177904E-02  8.74177904E-02 -1.94631779E-01 -1.94631779E-01
  8.74177904E-02  8.74177904E-02 -1.94631779E-01 -1.94631779E-01  8.74177904E-02
  8.74177904E-02 -1.94631779E-01 -1.94631779E-01  8.74177904E-02  8.74177904E-02
 -1.94631779E-01 -1.94631779E-01  8.74177904E-02  8.74177904E-02 -1.94631779E-01
 -1.94631779E-01  8.74177904E-02  8.74177904E-02 -1.94631779E-01 -1.94631779E-01
  8.74177904E-02  8.74177904E-02 -1.94631779E-01 -1.94631779E-01  8.74177904E-02
  8.74177904E-02 -1.94631779E-01 -1.94631779E-01  8.74177904E-02  8.74177904E-02
 -1.94631779E-01 -1.94631779E-01  8.74177904E-02  8.74177904E-02 -1.94631779E-01
 -1.94631779E-01  8.74177904E-02  8.74177904E-02 -1.94631779E-01 -1.94631779E-01
  8.74177904E-02  8.74177904E-02 -1.94631779E-01 -1.94631779E-01  8.74177904E-02
  8.74177904E-02 -1.94631779E-01 -1.94631779E-01  8.74177904E-02  8.74177904E-02
 -1.94631779E-01 -1.94631779E-01  8.74177904E-02  8.74177904E-02 -1.94631779E-01
 -1.94631779E-01  8.74177904E-02  8.74177904E-02 -1.94631779E-01 -1.94631779E-01
  8.74177904E-02  8.74177904E-02 -1.94631779E-01 -1.94631779E-01  8.74177904E-02
  8.74177904E-02 -1.94631779E-01 -1.94631779E-01  8.74177904E-02  8.74177904E-02
 -1.94631779E-01 -1.94631779E-01  8.74177904E-02  8.74177904E-02 -1.94631779E-01
 -1.94631779E-01  8.74177904E-02  8.74177904E-02 -1.94631779E-01 -1.94631779E-01
  8.74177904E-02  8.74177904E-02 -1.94631779E-01 -1.94631779E-01  8.74177904E-02
  8.74177904E-02 -1.94631779E-01 -1.94631779E-01  8.74177904E-02  8.74177904E-02
 -1.94631779E-01 -1.94631779E-01  8.74177904E-02  8.74177904E-02 -1.94631779E-01
 -1.94631779E-01  8.74177904E-02  8.74177904E-02 -1.94631779E-01 -1.94631779E-01
  8.74177904E-02  8.74177904E-02 -1.94631779E-01 -1.94631779E-01  8.74177904E-02
  8.74177904E-02 -1.94631779E-01 -1.94631779E-01  8.74177904E-02  8.74177904E-02
 -1.94631779E-01 -1.94631779E-01  8.74177904E-02  8.74177904E-02 -1.94631779E-01
 -1.94631779E-01  8.74177904E-02  8.74177904E-02 -1.94631779E-01 -1.94631779E-01
  8.74177904E-02  8.74177904E-02 -1.94631779E-01 -1.94631779E-01  8.74177904E-02
  8.74177904E-02 -1.94631779E-01 -1.94631779E-01  8.74177904E-02  8.74177904E-02
 -1.94631779E-01 -1.94631779E-01  8.74177904E-02  8.74177904E-02 -1.94631779E-01
 -1.94631779E-01  8.74177904E-02  8.74177904E-02 -1.94631779E-01 -1.94631779E-01
  8.74177904E-02  8.74177904E-02 -1.94631779E-01 -1.94631779E-01  8.74177904E-02
  8.74177904E-02 -1.94631779E-01 -1.94631779E-01  8.74177904E-02  8.74177904E-02
 -1.94631779E-01 -1.94631779E-01  8.74177904E-02  8.74177904E-02 -1.94631779E-01
 -1.94631779E-01  8.74177904E-02  8.74177904E-02 -1.94631779E-01 -1.94631779E-01
  8.74177904E-02  8.74177904E-02 -1.94631779E-01 -1.94631779E-01  8.74177904E-02
  8.74177904E-02 -1.94631779E-01 -1.94631779E-01  8.74177904E-02  8.74177904E-02
 -1.94631779E-01 -1.94631779E-01  8.74177904E-02  8.74177904E-02 -1.94631779E-01
 -1.94631779E-01  8.74177904E-02  8.74177904E-02 -1.94631779E-01 -1.94631779E-01
  8.74177904E-02  8.74177904E-02 -1.94631779E-01 -1.94631779E-01  8.74177904E-02
  8.74177904E-02 -1.94631779E-01 -1.94631779E-01  8.74177904E-02  8.74177904E-02
 -1.94631779E-01 -1.94631779E-01  8.74177904E-02  8.74177904E-02 -1.94631779E-01
 -1.94631779E-01  8.74177904E-02  8.74177904E-02 -1.94631779E-01 -1.94631779E-01
  8.74177904E-02  8.74177904E-02 -1.94631779E-01 -1.94631779E-01  8.74177904E-02
  8.74177904E-02 -1.94631779E-01 -1.94631779E-01  8.74177904E-02  8.74177904E-02
 -1.94631779E-01 -1.94631779E-01  8.74177904E-02  8.74177904E-02 -1.94631779E-01
 -1.94631779E-01  8.74177904E-02  8.74177904E-02 -1.94631779E-01 -1.94631779E-01
  8.74177904E-02  8.74177904E-02 -1.94631779E-01 -1.94631779E-01  8.74177904E-02
  8.74177904E-02 -1.94631779E-01 -1.94631779E-01  8.74177904E-02  8.74177904E-02
 -1.94631779E-01 -1.94631779E-01  8.74177904E-02  8.74177904E-02 -1.94631779E-01
 -1.94631779E-01  8.74177904E-02  8.74177904E-02 -1.94631779E-01 -1.94631779E-01
  8.74177904E-02  8.74177904E-02 -1.94631779E-01 -1.94631779E-01  8.74177904E-02
  8.74177904E-02 -1.94631779E-01 -1.94631779E-01  8.74177904E-02  8.74177904E-02
 -1.94631779E-01 -1.94631779E-01  8.74177904E-02  8.74177904E-02 -1.94631779E-01
 -1.94631779E-01  8.74177904E-02  8.74177904E-02 -1.94631779E-01 -1.94631779E-01
  8.74177904E-02  8.74177904E-02 -1.94631779E-01 -1.94631779E-01  8.74177904E-02
  8.74177904E-02 -1.94631779E-01 -1.94631779E-01  8.74177904E-02  8.74177904E-02
 -1.94631779E-01 -1.94631779E-01  8.74177904E-02  8.74177904E-02 -1.94631779E-01
 -1.94631779E-01  8.74177904E-02  8.74177904E-02 -1.94631779E-01 -1.94631779E-01
  8.74177904E-02  8.74177904E-02 -1.94631779E-01 -1.94631779E-01  8.74177904E-02
  8.74177904E-02 -1.94631779E-01 -1.94631779E-01  8.74177904E-02  8.74177904E-02
 -1.94631779E-01 -1.94631779E-01  8.74177904E-02  8.74177904E-02 -1.94631779E-01
 -1.94631779E-01  8.74177904E-02  8.74177904E-02 -1.94631779E-01 -1.94631779E-01
  8.74177904E-02  8.74177904E-02 -1.94631779E-01 -1.94631779E-01  8.74177904E-02
  8.74177904E-02 -1.94631779E-01 -1.94631779E-01  8.74177904E-02  8.74177904E-02
 -1.94631779E-01 -1.94631779E-01  8.74177904E-02  8.74177904E-02 -1.94631779E-01
 -1.94631779E-01  8.74177904E-02  8.74177904E-02 -1.94631779E-01 -1.94631779E-01
  8.74177904E-02  8.74177904E-02 -1.94631779E-01 -1.94631779E-01  8.74177904E-02
  8.74177904E-02 -1.94631779E-01 -1.94631779E-01  8.74177904E-02  8.74177904E-02
 -1.94631779E-01 -1.94631779E-01  8.74177904E-02  8.74177904E-02 -1.94631779E-01
 -1.94631779E-01  8.74177904E-02  8.74177904E-02 -1.94631779E-01 -1.94631779E-01
  8.74177904E-02  8.74177904E-02 -1.94631779E-01 -1.94631779E-01  8.74177904E-02
  8.74177904E-02 -1.94631779E-01 -1.94631779E-01  8.74177904E-02  8.74177904E-02
 -1.94631779E-01 -1.94631779E-01  8.74177904E-02  8.74177904E-02 -1.94631779E-01
 -1.94631779E-01  8.74177904E-02  8.74177904E-02 -1.94631779E-01 -1.94631779E-01
  8.74177904E-02  8.74177904E-02 -1.94631779E-01 -1.94631779E-01  8.74177904E-02
  8.74177904E-02 -1.94631779E-01 -1.94631779E-01  8.74177904E-02  8.74177904E-02
 -1.94631779E-01 -1.94631779E-01  8.74177904E-02  8.74177904E-02 -1.94631779E-01
 -1.94631779E-01  8.74177904E-02  8.74177904E-02 -1.94631779E-01 -1.94631779E-01
  8.74177904E-02  8.74177904E-02 -1.94631779E-01 -1.94631779E-01  8.74177904E-02
  8.74177904E-02 -1.94631779E-01 -1.94631779E-01  8.74177904E-02  8.74177904E-02
 -1.94631779E-01 -1.94631779E-01  8.74177904E-02  8.74177904E-02 -1.94631779E-01
 -1.94631779E-01  8.74177904E-02  8.74177904E-02 -1.94631779E-01 -1.94631779E-01
  8.74177904E-02  8.74177904E-02 -1.94631779E-01 -1.94631779E-01  8.74177904E-02
  8.74177904E-02 -1.94631779E-01 -1.94631779E-01  8.74177904E-02  8.74177904E-02
 -1.94631779E-01 -1.94631779E-01  8.74177904E-02  8.74177904E-02 -1.94631779E-01
 -1.94631779E-01  8.74177904E-02  8.74177904E-02 -1.94631779E-01 -1.94631779E-01
  8.74177904E-02  8.74177904E-02 -1.94631779E-01 -1.94631779E-01  8.74177904E-02
  8.74177904E-02 -1.94631779E-01 -1.94631779E-01  8.74177904E-02  8.74177904E-02
 -1.94631779E-01 -1.94631779E-01  8.74177904E-02  8.74177904E-02 -1.94631779E-01
 -1.94631779E-01  8.74177904E-02  8.74177904E-02 -1.94631779E-01 -1.94631779E-01
  8.74177904E-02  8.74177904E-02 -1.94631779E-01 -1.94631779E-01  8.74177904E-02
  8.74177904E-02 -1.94631779E-01 -1.94631779E-01  8.74177904E-02  8.74177904E-02
 -1.94631779E-01 -1.94631779E-01  8.74177904E-02  8.74177904E-02 -1.94631779E-01
 -1.94631779E-01  8.74177904E-02  8.74177904E-02 -1.94631779E-01 -1.94631779E-01
  8.74177904E-02  8.74177904E-02 -1.94631779E-01 -1.94631779E-01  8.74177904E-02
  8.74177904E-02 -1.94631779E-01 -1.94631779E-01  8.74177904E-02  8.74177904E-02
 -1.94631779E-01 -1.94631779E-01  8.74177904E-02  8.74177904E-02 -1.94631779E-01
 -1.94631779E-01  8.74177904E-02  8.74177904E-02 -1.94631779E-01 -1.94631779E-01
  8.74177904E-02  8.74177904E-02 -1.94631779E-01 -1.94631779E-01  8.74177904E-02
  8.74177904E-02 -1.94631779E-01 -1.94631779E-01  8.74177904E-02  8.74177904E-02
 -1.94631779E-01 -1.94631779E-01  8.74177904E-02  8.74177904E-02 -1.94631779E-01
 -1.94631779E-01  8.74177904E-02  8.74177904E-02 -1.94631779E-01 -1.94631779E-01
  8.74177904E-02  8.74177904E-02 -1.94631779E-01 -1.94631779E-01  8.74177904E-02
  8.74177904E-02 -1.94631779E-01 -1.94631779E-01  8.74177904E-02  8.74177904E-02
 -1.94631779E-01 -1.94631779E-01  8.74177904E-02  8.74177904E-02 -1.94631779E-01
 -1.94631779E-01  8.74177904E-02  8.74177904E-02 -1.94631779E-01 -1.94631779E-01
  8.74177904E-02  8.74177904E-02 -1.94631779E-01 -1.94631779E-01  8.74177904E-02
  8.74177904E-02 -1.94631779E-01 -1.94631779E-01  8.74177904E-02  8.74177904E-02
 -1.94631779E-01 -1.94631779E-01  8.74177904E-02  8.74177904E-02 -1.94631779E-01
 -1.94631779E-01  8.74177904E-02  8.74177904E-02 -1.94631779E-01 -1.94631779E-01
  8.74177904E-02  8.74177904E-02 -1.94631779E-01 -1.94631779E-01  8.74177904E-02
  8.74177904E-02 -1.94631779E-01 -1.94631779E-01  8.74177904E-02  8.74177904E-02
 -1.94631779E-01 -1.94631779E-01  8.74177904E-02  8.74177904E-02 -1.94631779E-01
 -1.94631779E-01  8.74177904E-02  8.74177904E-02 -1.94631779E-01 -1.94631779E-01
  8.74177904E-02  8.74177904E-02 -1.94631779E-01 -1.94631779E-01  8.74177904E-02
  8.74177904E-02 -1.94631779E-01 -1.94631779E-01  8.74177904E-02  8.74177904E-02
 -1.94631779E-01 -1.94631779E-01  8.74177904E-02  8.74177904E-02 -1.94631779E-01
 -1.94631779E-01  8.74177904E-02  8.74177904E-02 -1.94631779E-01 -1.94631779E-01
  8.74177904E-02  8.74177904E-02 -1.94631779E-01 -1.94631779E-01  8.74177904E-02
  8.74177904E-02 -1.94631779E-01 -1.94631779E-01  8.74177904E-02  8.74177904E-02
 -1.94631779E-01 -1.94631779E-01  8.74177904E-02  8.74177904E-02 -1.94631779E-01
 -1.94631779E-01  8.74177904E-02  8.74177904E-02 -1.94631779E-01 -1.94631779E-01
  8.74177904E-02  8.74177904E-02 -1.94631779E-01 -1.94631779E-01  8.74177904E-02
  8.74177904E-02 -1.94631779E-01 -1.94631779E-01  8.74177904E-02  8.74177904E-02
 -1.94631779E-01 -1.94631779E-01  8.74177904E-02  8.74177904E-02 -1.94631779E-01
 -1.94631779E-01  8.74177904E-02  8.74177904E-02 -1.94631779E-01 -1.94631779E-01
  8.74177904E-02  8.74177904E-02 -1.94631779E-01 -1.94631779E-01  8.74177904E-02
  8.74177904E-02 -1.94631779E-01 -1.94631779E-01  8.74177904E-02  8.74177904E-02
 -1.94631779E-01 -1.94631779E-01  8.74177904E-02  8.74177904E-02 -1.94631779E-01
 -1.94631779E-01  8.74177904E-02  8.74177904E-02 -1.94631779E-01 -1.94631779E-01
  8.74177904E-02  8.74177904E-02 -1.94631779E-01 -1.94631779E-01  8.74177904E-02
  8.74177904E-02 -1.94631779E-01 -1.94631779E-01  8.74177904E-02  8.74177904E-02
 -1.94631779E-01 -1.94631779E-01  8.74177904E-02  8.74177904E-02 -1.94631779E-01
 -1.94631779E-01  8.74177904E-02  8.74177904E-02 -1.94631779E-01 -1.94631779E-01
  8.74177904E-02  8.74177904E-02 -1.94631779E-01 -1.94631779E-01  8.74177904E-02
  8.74177904E-02 -1.94631779E-01 -1.94631779E-01  8.74177904E-02  8.74177904E-02
 -1.94631779E-01 -1.94631779E-01  8.74177904E-02  8.74177904E-02 -1.94631779E-01
 -1.94631779E-01  8.74177904E-02  8.74177904E-02 -1.94631779E-01 -1.94631779E-01
  8.74177904E-02  8.74177904E-02 -1.94631779E-01 -1.94631779E-01  8.74177904E-02
  8.74177904E-02 -1.94631779E-01 -1.94631779E-01  8.74177904E-02  8.74177904E-02
 -1.94631779E-01 -1.94631779E-01  8.74177904E-02  8.74177904E-02 -1.94631779E-01
 -1.94631779E-01  8.74177904E-02  8.74177904E-02 -1.94631779E-01 -1.94631779E-01
  8.74177904E-02  8.74177904E-02 -1.94631779E-01 -1.94631779E-01  8.74177904E-02
  8.74177904E-02 -1.94631779E-01 -1.94631779E-01  8.74177904E-02  8.74177904E-02
 -1.94631779E-01 -1.94631779E-01  8.74177904E-02  8.74177904E-02 -1.94631779E-01
 -1.94631779E-01  8.74177904E-02  8.74177904E-02 -1.94631779E-01 -1.94631779E-01
  8.74177904E-02  8.74177904E-02 -1.94631779E-01 -1.94631779E-01  8.74177904E-02
  8.74177904E-02 -1.94631779E-01 -1.94631779E-01  8.74177904E-02  8.74177904E-02
 -1.94631779E-01 -1.94631779E-01  8.74177904E-02  8.74177904E-02 -1.94631779E-01
 -1.94631779E-01  8.74177904E-02  8.74177904E-02 -1.94631779E-01 -1.94631779E-01
  8.74177904E-02  8.74177904E-02 -1.94631779E-01 -1.94631779E-01  8.74177904E-02
  8.74177904E-02 -1.94631779E-01 -1.94631779E-01  8.74177904E-02  8.74177904E-02
 -1.94631779E-01 -1.94631779E-01  8.74177904E-02  8.74177904E-02 -1.94631779E-01
 -1.94631779E-01  8.74177904E-02  8.74177904E-02 -1.94631779E-01 -1.94631779E-01
  8.74177904E-02  8.74177904E-02 -1.94631779E-01 -1.94631779E-01  8.74177904E-02
  8.74177904E-02 -1.94631779E-01 -1.94631779E-01  8.74177904E-02  8.74177904E-02
 -1.94631779E-01 -1.94631779E-01  8.74177904E-02  8.74177904E-02 -1.94631779E-01
 -1.94631779E-01  8.74177904E-02  8.74177904E-02 -1.94631779E-01 -1.94631779E-01
  8.74177904E-02  8.74177904E-02 -1.94631779E-01 -1.94631779E-01  8.74177904E-02
  8.74177904E-02 -1.94631779E-01 -1.94631779E-01  8.74177904E-02  8.74177904E-02
 -1.94631779E-01 -1.94631779E-01  8.74177904E-02  8.74177904E-02 -1.94631779E-01
 -1.94631779E-01  8.74177904E-02  8.74177904E-02 -1.94631779E-01 -1.94631779E-01
  8.74177904E-02  8.74177904E-02 -1.94631779E-01 -1.94631779E-01  8.74177904E-02
  8.74177904E-02 -1.94631779E-01 -1.94631779E-01  8.74177904E-02  8.74177904E-02
 -1.94631779E-01 -1.94631779E-01  8.74177904E-02  8.74177904E-02 -1.94631779E-01
 -1.94631779E-01  8.74177904E-02  8.74177904E-02 -1.94631779E-01 -1.94631779E-01
  8.74177904E-02  8.74177904E-02 -1.94631779E-01 -1.94631779E-01  8.74177904E-02
  8.74177904E-02 -1.94631779E-01 -1.94631779E-01  8.74177904E-02  8.74177904E-02
 -1.94631779E-01 -1.94631779E-01  8.74177904E-02  8.74177904E-02 -1.94631779E-01
 -1.94631779E-01  8.74177904E-02  8.74177904E-02 -1.94631779E-01 -1.94631779E-01
  8.74177904E-02  8.74177904E-02 -1.94631779E-01 -1.94631779E-01  8.74177904E-02
  8.74177904E-02 -1.94631779E-01 -1.94631779E-01  8.74177904E-02  8.74177904E-02
 -1.94631779E-01 -1.94631779E-01  8.74177904E-02  8.74177904E-02 -1.94631779E-01
 -1.94631779E-01  8.74177904E-02  8.74177904E-02 -1.94631779E-01 -1.94631779E-01
  8.74177904E-02  8.74177904E-02 -1.94631779E-01 -1.94631779E-01  8.74177904E-02
  8.74177904E-02 -1.94631779E-01 -1.94631779E-01  8.74177904E-02  8.74177904E-02
 -1.94631779E-01 -1.94631779E-01  8.74177904E-02  8.74177904E-02 -1.94631779E-01
 -1.94631779E-01  8.74177904E-02  8.74177904E-02 -1.94631779E-01 -1.94631779E-01
  8.74177904E-02  8.74177904E-02 -1.94631779E-01 -1.94631779E-01  8.74177904E-02
  8.74177904E-02 -1.94631779E-01 -1.94631779E-01  8.74177904E-02  8.74177904E-02
 -1.94631779E-01 -1.94631779E-01  8.74177904E-02  8.74177904E-02 -1.94631779E-01
 -1.94631779E-01  8.74177904E-02  8.74177904E-02 -1.94631779E-01 -1.94631779E-01
  8.74177904E-02  8.74177904E-02 -1.94631779E-01 -1.94631779E-01  8.74177904E-02
  8.74177904E-02 -1.94631779E-01 -1.94631779E-01  8.74177904E-02  8.74177904E-02
 -1.94631779E-01 -1.94631779E-01  8.74177904E-02  8.74177904E-02 -1.94631779E-01
 -1.94631779E-01  8.74177904E-02  8.74177904E-02 -1.94631779E-01 -1.94631779E-01
  8.74177904E-02  8.74177904E-02 -1.94631779E-01 -1.94631779E-01  8.74177904E-02
  8.74177904E-02 -1.94631779E-01 -1.94631779E-01  8.74177904E-02  8.74177904E-02
 -1.94631779E-01 -1.94631779E-01  8.74177904E-02  8.74177904E-02 -1.94631779E-01
 -1.94631779E-01  8.74177904E-02  8.74177904E-02 -1.94631779E-01 -1.94631779E-01
  8.74177904E-02  8.74177904E-02 -1.94631779E-01 -1.94631779E-01  8.74177904E-02
  8.74177904E-02 -1.94631779E-01 -1.94631779E-01  8.74177904E-02  8.74177904E-02
 -1.94631779E-01 -1.94631779E-01  8.74177904E-02  8.74177904E-02 -1.94631779E-01
 -1.94631779E-01  8.74177904E-02  8.74177904E-02 -1.94631779E-01 -1.94631779E-01
  8.74177904E-02  8.74177904E-02 -1.94631779E-01 -1.94631779E-01  8.74177904E-02
  8.74177904E-02 -1.94631779E-01 -1.94631779E-01  8.74177904E-02  8.74177904E-02
 -1.94631779E-01 -1.94631779E-01  8.74177904E-02  8.74177904E-02 -1.94631779E-01
 -1.94631779E-01  8.74177904E-02  8.74177904E-02 -1.94631779E-01 -1.94631779E-01
  8.74177904E-02  8.74177904E-02 -1.94631779E-01 -1.94631779E-01  8.74177904E-02
  8.74177904E-02 -1.94631779E-01 -1.94631779E-01  8.74177904E-02  8.74177904E-02
 -1.94631779E-01 -1.94631779E-01  8.74177904E-02  8.74177904E-02 -1.94631779E-01
 -1.94631779E-01  8.74177904E-02  8.74177904E-02 -1.94631779E-01 -1.94631779E-01
  8.74177904E-02  8.74177904E-02 -1.94631779E-01 -1.94631779E-01  8.74177904E-02
  8.74177904E-02 -1.94631779E-01 -1.94631779E-01  8.74177904E-02  8.74177904E-02
 -1.94631779E-01 -1.94631779E-01  8.74177904E-02  8.74177904E-02 -1.94631779E-01
 -1.94631779E-01  8.74177904E-02  8.74177904E-02 -1.94631779E-01 -1.94631779E-01
  8.74177904E-02  8.74177904E-02 -1.94631779E-01 -1.94631779E-01  8.74177904E-02
  8.74177904E-02 -1.94631779E-01 -1.94631779E-01  8.74177904E-02  8.74177904E-02
 -1.94631779E-01 -1.94631779E-01  8.74177904E-02  8.74177904E-02 -1.94631779E-01
 -1.94631779E-01  8.74177904E-02  8.74177904E-02 -1.94631779E-01 -1.94631779E-01
  8.74177904E-02  8.74177904E-02 -1.94631779E-01 -1.94631779E-01  8.74177904E-02
  8.74177904E-02 -1.94631779E-01 -1.94631779E-01  8.74177904E-02  8.74177904E-02
 -1.94631779E-01 -1.94631779E-01  8.74177904E-02  8.74177904E-02 -1.94631779E-01
 -1.94631779E-01  8.74177904E-02  8.74177904E-02 -1.94631779E-01 -1.94631779E-01
  8.74177904E-02  8.74177904E-02 -1.94631779E-01 -1.94631779E-01  8.74177904E-02
  8.74177904E-02 -1.94631779E-01 -1.94631779E-01  8.74177904E-02  8.74177904E-02
 -1.94631779E-01 -1.94631779E-01  8.74177904E-02  8.74177904E-02 -1.94631779E-01
 -1.94631779E-01  8.74177904E-02  8.74177904E-02 -1.94631779E-01 -1.94631779E-01
  8.74177904E-02  8.74177904E-02 -1.94631779E-01 -1.94631779E-01  8.74177904E-02
  8.74177904E-02 -1.94631779E-01 -1.94631779E-01  8.74177904E-02  8.74177904E-02
 -1.94631779E-01 -1.94631779E-01  8.74177904E-02  8.74177904E-02 -1.94631779E-01
 -1.94631779E-01  8.74177904E-02  8.74177904E-02 -1.94631779E-01 -1.94631779E-01
  8.74177904E-02  8.74177904E-02 -1.94631779E-01 -1.94631779E-01  8.74177904E-02
  8.74177904E-02 -1.94631779E-01 -1.94631779E-01  8.74177904E-02  8.74177904E-02
 -1.94631779E-01 -1.94631779E-01  8.74177904E-02  8.74177904E-02 -1.94631779E-01
 -1.94631779E-01  8.74177904E-02  8.74177904E-02 -1.94631779E-01 -1.94631779E-01
  8.74177904E-02  8.74177904E-02 -1.94631779E-01 -1.94631779E-01  8.74177904E-02
  8.74177904E-02 -1.94631779E-01 -1.94631779E-01  8.74177904E-02  8.74177904E-02
 -1.94631779E-01 -1.94631779E-01  8.74177904E-02  8.74177904E-02 -1.94631779E-01
 -1.94631779E-01  8.74177904E-02  8.74177904E-02 -1.94631779E-01 -1.94631779E-01
  8.74177904E-02  8.74177904E-02 -1.94631779E-01 -1.94631779E-01  8.74177904E-02
  8.74177904E-02 -1.94631779E-01 -1.94631779E-01  8.74177904E-02  8.74177904E-02
 -1.94631779E-01 -1.94631779E-01  8.74177904E-02  8.74177904E-02 -1.94631779E-01
 -1.94631779E-01  8.74177904E-02  8.74177904E-02
%FLAG POL_GAUSS_MONOPOLES_LIST
%COMMENT   unit: e
%COMMENT   dimension = (1536=512*3)
%FORMAT(5E16.8)
  1.00000000E+00  1.00000000E+00  1.00000000E+00  1.00000000E+00 -1.00000000E+00
 -1.00000000E+00 -1.00000000E+00 -1.00000000E+00 -2.04040520E+00  1.02020260E+00
  1.02020260E+00 -2.04040520E+00  1.02020260E+00  1.02020260E+00 -2.04040520E+00
  1.02020260E+00  1.02020260E+00 -2.04040520E+00  1.02020260E+00  1.02020260E+00
 -2.04040520E+00  1.02020260E+00  1.02020260E+00 -2.04040520E+00  1.02020260E+00
  1.02020260E+00 -2.04040520E+00  1.02020260E+00  1.02020260E+00 -2.04040520E+00
  1.02020260E+00  1.02020260E+00 -2.04040520E+00  1.02020260E+00  1.02020260E+00
 -2.04040520E+00  1.02020260E+00  1.02020260E+00 -2.04040520E+00  1.02020260E+00
  1.02020260E+00 -2.04040520E+00  1.02020260E+00  1.02020260E+00 -2.04040520E+00
  1.02020260E+00  1.02020260E+00 -2.04040520E+00  1.02020260E+00  1.02020260E+00
 -2.04040520E+00  1.02020260E+00  1.02020260E+00 -2.04040520E+00  1.02020260E+00
  1.02020260E+00 -2.04040520E+00  1.02020260E+00  1.02020260E+00 -2.04040520E+00
  1.02020260E+00  1.02020260E+00 -2.04040520E+00  1.02020260E+00  1.02020260E+00
 -2.04040520E+00  1.02020260E+00  1.02020260E+00 -2.04040520E+00  1.02020260E+00
  1.02020260E+00 -2.04040520E+00  1.02020260E+00  1.02020260E+00 -2.04040520E+00
  1.02020260E+00  1.02020260E+00 -2.04040520E+00  1.02020260E+00  1.02020260E+00
 -2.04040520E+00  1.02020260E+00  1.02020260E+00 -2.04040520E+00  1.02020260E+00
  1.02020260E+00 -2.04040520E+00  1.02020260E+00  1.02020260E+00 -2.04040520E+00
  1.02020260E+00  1.02020260E+00 -2.04040520E+00  1.02020260E+00  1.02020260E+00
 -2.04040520E+00  1.02020260E+00  1.02020260E+00 -2.04040520E+00  1.02020260E+00
  1.02020260E+00 -2.04040520E+00  1.02020260E+00  1.02020260E+00 -2.04040520E+00
  1.02020260E+00  1.02020260E+00 -2.04040520E+00  1.02020260E+00  1.02020260E+00
 -2.04040520E+00  1.02020260E+00  1.02020260E+00 -2.04040520E+00  1.02020260E+00
  1.02020260E+00 -2.04040520E+00  1.02020260E+00  1.02020260E+00 -2.04040520E+00
  1.02020260E+00  1.02020260E+00 -2.04040520E+00  1.02020260E+00  1.02020260E+00
 -2.04040520E+00  1.02020260E+00  1.02020260E+00 -2.04040520E+00  1.02020260E+00
  1.02020260E+00 -2.04040520E+00  1.02020260E+00  1.02020260E+00 -2.04040520E+00
  1.02020260E+00  1.02020260E+00 -2.04040520E+00  1.02020260E+00  1.02020260E+00
 -2.04040520E+00  1.02020260E+00  1.02020260E+00 -2.04040520E+00  1.02020260E+00
  1.02020260E+00 -2.04040520E+00  1.02020260E+00  1.02020260E+00 -2.04040520E+00
  1.02020260E+00  1.02020260E+00 -2.04040520E+00  1.02020260E+00  1.02020260E+00
 -2.04040520E+00  1.02020260E+00  1.02020260E+00 -2.04040520E+00  1.02020260E+00
  1.02020260E+00 -2.04040520E+00  1.02020260E+00  1.02020260E+00 -2.04040520E+00
  1.02020260E+00  1.02020260E+00 -2.04040520E+00  1.02020260E+00  1.02020260E+00
 -2.04040520E+00  1.02020260E+00  1.02020260E+00 -2.04040520E+00  1.02020260E+00
  1.02020260E+00 -2.04040520E+00  1.02020260E+00  1.02020260E+00 -2.04040520E+00
  1.02020260E+00  1.02020260E+00 -2.04040520E+00  1.02020260E+00  1.02020260E+00
 -2.04040520E+00  1.02020260E+00  1.02020260E+00 -2.04040520E+00  1.02020260E+00
  1.02020260E+00 -2.04040520E+00  1.02020260E+00  1.02020260E+00 -2.04040520E+00
  1.02020260E+00  1.02020260E+00 -2.04040520E+00  1.02020260E+00  1.02020260E+00
 -2.04040520E+00  1.02020260E+00  1.02020260E+00 -2.04040520E+00  1.02020260E+00
  1.02020260E+00 -2.04040520E+00  1.02020260E+00  1.02020260E+00 -2.04040520E+00
  1.02020260E+00  1.02020260E+00 -2.04040520E+00  1.02020260E+00  1.02020260E+00
 -2.04040520E+00  1.02020260E+00  1.02020260E+00 -2.04040520E+00  1.02020260E+00
  1.02020260E+00 -2.04040520E+00  1.02020260E+00  1.02020260E+00 -2.04040520E+00
  1.02020260E+00  1.02020260E+00 -2.04040520E+00  1.02020260E+00  1.02020260E+00
 -2.04040520E+00  1.02020260E+00  1.02020260E+00 -2.04040520E+00  1.02020260E+00
  1.02020260E+00 -2.04040520E+00  1.02020260E+00  1.02020260E+00 -2.04040520E+00
  1.02020260E+00  1.02020260E+00 -2.04040520E+00  1.02020260E+00  1.02020260E+00
 -2.04040520E+00  1.02020260E+00  1.02020260E+00 -2.04040520E+00  1.02020260E+00
  1.02020260E+00 -2.04040520E+00  1.02020260E+00  1.02020260E+00 -2.04040520E+00
  1.02020260E+00  1.02020260E+00 -2.04040520E+00  1.02020260E+00  1.02020260E+00
 -2.04040520E+00  1.02020260E+00  1.02020260E+00 -2.04040520E+00  1.02020260E+00
  1.02020260E+00 -2.04040520E+00  1.02020260E+00  1.02020260E+00 -2.04040520E+00
  1.02020260E+00  1.02020260E+00 -2.04040520E+00  1.02020260E+00  1.02020260E+00
 -2.04040520E+00  1.02020260E+00  1.02020260E+00 -2.04040520E+00  1.02020260E+00
  1.02020260E+00 -2.04040520E+00  1.02020260E+00  1.02020260E+00 -2.04040520E+00
  1.02020260E+00  1.02020260E+00 -2.04040520E+00  1.02020260E+00  1.02020260E+00
 -2.04040520E+00  1.02020260E+00  1.02020260E+00 -2.04040520E+00  1.02020260E+00
  1.02020260E+00 -2.04040520E+00  1.02020260E+00  1.02020260E+00 -2.04040520E+00
  1.02020260E+00  1.02020260E+00 -2.04040520E+00  1.02020260E+00  1.02020260E+00
 -2.04040520E+00  1.02020260E+00  1.02020260E+00 -2.04040520E+00  1.02020260E+00
  1.02020260E+00 -2.04040520E+00  1.02020260E+00  1.02020260E+00 -2.04040520E+00
  1.02020260E+00  1.02020260E+00 -2.04040520E+00  1.02020260E+00  1.02020260E+00
 -2.04040520E+00  1.02020260E+00  1.02020260E+00 -2.04040520E+00  1.02020260E+00
  1.02020260E+00 -2.04040520E+00  1.02020260E+00  1.02020260E+00 -2.04040520E+00
  1.02020260E+00  1.02020260E+00 -2.04040520E+00  1.02020260E+00  1.02020260E+00
 -2.04040520E+00  1.02020260E+00  1.02020260E+00 -2.04040520E+00  1.02020260E+00
  1.02020260E+00 -2.04040520E+00  1.02020260E+00  1.02020260E+00 -2.04040520E+00
  1.02020260E+00  1.02020260E+00 -2.04040520E+00  1.02020260E+00  1.02020260E+00
 -2.04040520E+00  1.02020260E+00  1.02020260E+00 -2.04040520E+00  1.02020260E+00
  1.02020260E+00 -2.04040520E+00  1.02020260E+00  1.02020260E+00 -2.04040520E+00
  1.02020260E+00  1.02020260E+00 -2.04040520E+00  1.02020260E+00  1.02020260E+00
 -2.04040520E+00  1.02020260E+00  1.02020260E+00 -2.04040520E+00  1.02020260E+00
  1.02020260E+00 -2.04040520E+00  1.02020260E+00  1.02020260E+00 -2.04040520E+00
  1.02020260E+00  1.02020260E+00 -2.04040520E+00  1.02020260E+00  1.02020260E+00
 -2.04040520E+00  1.02020260E+00  1.02020260E+00 -2.04040520E+00  1.02020260E+00
  1.02020260E+00 -2.04040520E+00  1.02020260E+00  1.02020260E+00 -2.04040520E+00
  1.02020260E+00  1.02020260E+00 -2.04040520E+00  1.02020260E+00  1.02020260E+00
 -2.04040520E+00  1.02020260E+00  1.02020260E+00 -2.04040520E+00  1.02020260E+00
  1.02020260E+00 -2.04040520E+00  1.02020260E+00  1.02020260E+00 -2.04040520E+00
  1.02020260E+00  1.02020260E+00 -2.04040520E+00  1.02020260E+00  1.02020260E+00
 -2.04040520E+00  1.02020260E+00  1.02020260E+00 -2.04040520E+00  1.02020260E+00
  1.02020260E+00 -2.04040520E+00  1.02020260E+00  1.02020260E+00 -2.04040520E+00
  1.02020260E+00  1.02020260E+00 -2.04040520E+00  1.02020260E+00  1.02020260E+00
 -2.04040520E+00  1.02020260E+00  1.02020260E+00 -2.04040520E+00  1.02020260E+00
  1.02020260E+00 -2.04040520E+00  1.02020260E+00  1.02020260E+00 -2.04040520E+00
  1.02020260E+00  1.02020260E+00 -2.04040520E+00  1.02020260E+00  1.02020260E+00
 -2.04040520E+00  1.02020260E+00  1.02020260E+00 -2.04040520E+00  1.02020260E+00
  1.02020260E+00 -2.04040520E+00  1.02020260E+00  1.02020260E+00 -2.04040520E+00
  1.02020260E+00  1.02020260E+00 -2.04040520E+00  1.02020260E+00  1.02020260E+00
 -2.04040520E+00  1.02020260E+00  1.02020260E+00 -2.04040520E+00  1.02020260E+00
  1.02020260E+00 -2.04040520E+00  1.02020260E+00  1.02020260E+00 -2.04040520E+00
  1.02020260E+00  1.02020260E+00 -2.04040520E+00  1.02020260E+00  1.02020260E+00
 -2.04040520E+00  1.02020260E+00  1.02020260E+00 -2.04040520E+00  1.02020260E+00
  1.02020260E+00 -2.04040520E+00  1.02020260E+00  1.02020260E+00 -2.04040520E+00
  1.02020260E+00  1.02020260E+00 -2.04040520E+00  1.02020260E+00  1.02020260E+00
 -2.04040520E+00  1.02020260E+00  1.02020260E+00 -2.04040520E+00  1.02020260E+00
  1.02020260E+00 -2.04040520E+00  1.02020260E+00  1.02020260E+00 -2.04040520E+00
  1.02020260E+00  1.02020260E+00 -2.04040520E+00  1.02020260E+00  1.02020260E+00
 -2.04040520E+00  1.02020260E+00  1.02020260E+00 -2.04040520E+00  1.02020260E+00
  1.02020260E+00 -2.04040520E+00  1.02020260E+00  1.02020260E+00 -2.04040520E+00
  1.02020260E+00  1.02020260E+00 -2.04040520E+00  1.02020260E+00  1.02020260E+00
 -2.04040520E+00  1.02020260E+00  1.02020260E+00 -2.04040520E+00  1.02020260E+00
  1.02020260E+00 -2.04040520E+00  1.02020260E+00  1.02020260E+00 -2.04040520E+00
  1.02020260E+00  1.02020260E+00 -2.04040520E+00  1.02020260E+00  1.02020260E+00
 -2.04040520E+00  1.02020260E+00  1.02020260E+00 -2.04040520E+00  1.02020260E+00
  1.02020260E+00 -2.04040520E+00  1.02020260E+00  1.02020260E+00 -2.04040520E+00
  1.02020260E+00  1.02020260E+00 -2.04040520E+00  1.02020260E+00  1.02020260E+00
 -2.04040520E+00  1.02020260E+00  1.02020260E+00 -2.04040520E+00  1.02020260E+00
  1.02020260E+00 -2.04040520E+00  1.02020260E+00  1.02020260E+00 -2.04040520E+00
  1.02020260E+00  1.02020260E+00 -2.04040520E+00  1.02020260E+00  1.02020260E+00
 -2.04040520E+00  1.02020260E+00  1.02020260E+00 -2.04040520E+00  1.02020260E+00
  1.02020260E+00 -2.04040520E+00  1.02020260E+00  1.02020260E+00 -2.04040520E+00
  1.02020260E+00  1.02020260E+00 -2.04040520E+00  1.02020260E+00  1.02020260E+00
 -2.04040520E+00  1.02020260E+00  1.02020260E+00 -2.04040520E+00  1.02020260E+00
  1.02020260E+00 -2.04040520E+00  1.02020260E+00  1.02020260E+00 -2.04040520E+00
  1.02020260E+00  1.02020260E+00 -2.04040520E+00  1.02020260E+00  1.02020260E+00
 -2.04040520E+00  1.02020260E+00  1.02020260E+00 -2.04040520E+00  1.02020260E+00
  1.02020260E+00 -2.04040520E+00  1.02020260E+00  1.02020260E+00 -2.04040520E+00
  1.02020260E+00  1.02020260E+00 -2.04040520E+00  1.02020260E+00  1.02020260E+00
 -2.04040520E+00  1.02020260E+00  1.02020260E+00 -2.04040520E+00  1.02020260E+00
  1.02020260E+00 -2.04040520E+00  1.02020260E+00  1.02020260E+00 -2.04040520E+00
  1.02020260E+00  1.02020260E+00 -2.04040520E+00  1.02020260E+00  1.02020260E+00
 -2.04040520E+00  1.02020260E+00  1.02020260E+00 -2.04040520E+00  1.02020260E+00
  1.02020260E+00 -2.04040520E+00  1.02020260E+00  1.02020260E+00 -2.04040520E+00
  1.02020260E+00  1.02020260E+00 -2.04040520E+00  1.02020260E+00  1.02020260E+00
 -2.04040520E+00  1.02020260E+00  1.02020260E+00 -2.04040520E+00  1.02020260E+00
  1.02020260E+00 -2.04040520E+00  1.02020260E+00  1.02020260E+00 -2.04040520E+00
  1.02020260E+00  1.02020260E+00 -2.04040520E+00  1.02020260E+00  1.02020260E+00
 -2.04040520E+00  1.02020260E+00  1.02020260E+00 -2.04040520E+00  1.02020260E+00
  1.02020260E+00 -2.04040520E+00  1.02020260E+00  1.02020260E+00 -2.04040520E+00
  1.02020260E+00  1.02020260E+00 -2.04040520E+00  1.02020260E+00  1.02020260E+00
 -2.04040520E+00  1.02020260E+00  1.02020260E+00 -2.04040520E+00  1.02020260E+00
  1.02020260E+00 -2.04040520E+00  1.02020260E+00  1.02020260E+00 -2.04040520E+00
  1.02020260E+00  1.02020260E+00 -2.04040520E+00  1.02020260E+00  1.02020260E+00
 -2.04040520E+00  1.02020260E+00  1.02020260E+00 -2.04040520E+00  1.02020260E+00
  1.02020260E+00 -2.04040520E+00  1.02020260E+00  1.02020260E+00 -2.04040520E+00
  1.02020260E+00  1.02020260E+00 -2.04040520E+00  1.02020260E+00  1.02020260E+00
 -2.04040520E+00  1.02020260E+00  1.02020260E+00 -2.04040520E+00  1.02020260E+00
  1.02020260E+00 -2.04040520E+00  1.02020260E+00  1.02020260E+00 -2.04040520E+00
  1.02020260E+00  1.02020260E+00 -2.04040520E+00  1.02020260E+00  1.02020260E+00
 -2.04040520E+00  1.02020260E+00  1.02020260E+00 -2.04040520E+00  1.02020260E+00
  1.02020260E+00 -2.04040520E+00  1.02020260E+00  1.02020260E+00 -2.04040520E+00
  1.02020260E+00  1.02020260E+00 -2.04040520E+00  1.02020260E+00  1.02020260E+00
 -2.04040520E+00  1.02020260E+00  1.02020260E+00 -2.04040520E+00  1.02020260E+00
  1.02020260E+00 -2.04040520E+00  1.02020260E+00  1.02020260E+00 -2.04040520E+00
  1.02020260E+00  1.02020260E+00 -2.04040520E+00  1.02020260E+00  1.02020260E+00
 -2.04040520E+00  1.02020260E+00  1.02020260E+00 -2.04040520E+00  1.02020260E+00
  1.02020260E+00 -2.04040520E+00  1.02020260E+00  1.02020260E+00 -2.04040520E+00
  1.02020260E+00  1.02020260E+00 -2.04040520E+00  1.02020260E+00  1.02020260E+00
 -2.04040520E+00  1.02020260E+00  1.02020260E+00 -2.04040520E+00  1.02020260E+00
  1.02020260E+00 -2.04040520E+00  1.02020260E+00  1.02020260E+00 -2.04040520E+00
  1.02020260E+00  1.02020260E+00 -2.04040520E+00  1.02020260E+00  1.02020260E+00
 -2.04040520E+00  1.02020260E+00  1.02020260E+00 -2.04040520E+00  1.02020260E+00
  1.02020260E+00 -2.04040520E+00  1.02020260E+00  1.02020260E+00 -2.04040520E+00
  1.02020260E+00  1.02020260E+00 -2.04040520E+00  1.02020260E+00  1.02020260E+00
 -2.04040520E+00  1.02020260E+00  1.02020260E+00 -2.04040520E+00  1.02020260E+00
  1.02020260E+00 -2.04040520E+00  1.02020260E+00  1.02020260E+00 -2.04040520E+00
  1.02020260E+00  1.02020260E+00 -2.04040520E+00  1.02020260E+00  1.02020260E+00
 -2.04040520E+00  1.02020260E+00  1.02020260E+00 -2.04040520E+00  1.02020260E+00
  1.02020260E+00 -2.04040520E+00  1.02020260E+00  1.02020260E+00 -2.04040520E+00
  1.02020260E+00  1.02020260E+00 -2.04040520E+00  1.02020260E+00  1.02020260E+00
 -2.04040520E+00  1.02020260E+00  1.02020260E+00 -2.04040520E+00  1.02020260E+00
  1.02020260E+00 -2.04040520E+00  1.02020260E+00  1.02020260E+00 -2.04040520E+00
  1.02020260E+00  1.02020260E+00 -2.04040520E+00  1.02020260E+00  1.02020260E+00
 -2.04040520E+00  1.02020260E+00  1.02020260E+00 -2.04040520E+00  1.02020260E+00
  1.02020260E+00 -2.04040520E+00  1.02020260E+00  1.02020260E+00 -2.04040520E+00
  1.02020260E+00  1.02020260E+00 -2.04040520E+00  1.02020260E+00  1.02020260E+00
 -2.04040520E+00  1.02020260E+00  1.02020260E+00 -2.04040520E+00  1.02020260E+00
  1.02020260E+00 -2.04040520E+00  1.02020260E+00  1.02020260E+00 -2.04040520E+00
  1.02020260E+00  1.02020260E+00 -2.04040520E+00  1.02020260E+00  1.02020260E+00
 -2.04040520E+00  1.02020260E+00  1.02020260E+00 -2.04040520E+00  1.02020260E+00
  1.02020260E+00 -2.04040520E+00  1.02020260E+00  1.02020260E+00 -2.04040520E+00
  1.02020260E+00  1.02020260E+00 -2.04040520E+00  1.02020260E+00  1.02020260E+00
 -2.04040520E+00  1.02020260E+00  1.02020260E+00 -2.04040520E+00  1.02020260E+00
  1.02020260E+00 -2.04040520E+00  1.02020260E+00  1.02020260E+00 -2.04040520E+00
  1.02020260E+00  1.02020260E+00 -2.04040520E+00  1.02020260E+00  1.02020260E+00
 -2.04040520E+00  1.02020260E+00  1.02020260E+00 -2.04040520E+00  1.02020260E+00
  1.02020260E+00 -2.04040520E+00  1.02020260E+00  1.02020260E+00 -2.04040520E+00
  1.02020260E+00  1.02020260E+00 -2.04040520E+00  1.02020260E+00  1.02020260E+00
 -2.04040520E+00  1.02020260E+00  1.02020260E+00 -2.04040520E+00  1.02020260E+00
  1.02020260E+00 -2.04040520E+00  1.02020260E+00  1.02020260E+00 -2.04040520E+00
  1.02020260E+00  1.02020260E+00 -2.04040520E+00  1.02020260E+00  1.02020260E+00
 -2.04040520E+00  1.02020260E+00  1.02020260E+00 -2.04040520E+00  1.02020260E+00
  1.02020260E+00 -2.04040520E+00  1.02020260E+00  1.02020260E+00 -2.04040520E+00
  1.02020260E+00  1.02020260E+00 -2.04040520E+00  1.02020260E+00  1.02020260E+00
 -2.04040520E+00  1.02020260E+00  1.02020260E+00 -2.04040520E+00  1.02020260E+00
  1.02020260E+00 -2.04040520E+00  1.02020260E+00  1.02020260E+00 -2.04040520E+00
  1.02020260E+00  1.02020260E+00 -2.04040520E+00  1.02020260E+00  1.02020260E+00
 -2.04040520E+00  1.02020260E+00  1.02020260E+00 -2.04040520E+00  1.02020260E+00
  1.02020260E+00 -2.04040520E+00  1.02020260E+00  1.02020260E+00 -2.04040520E+00
  1.02020260E+00  1.02020260E+00 -2.04040520E+00  1.02020260E+00  1.02020260E+00
 -2.04040520E+00  1.02020260E+00  1.02020260E+00 -2.04040520E+00  1.02020260E+00
  1.02020260E+00 -2.04040520E+00  1.02020260E+00  1.02020260E+00 -2.04040520E+00
  1.02020260E+00  1.02020260E+00 -2.04040520E+00  1.02020260E+00  1.02020260E+00
 -2.04040520E+00  1.02020260E+00  1.02020260E+00 -2.04040520E+00  1.02020260E+00
  1.02020260E+00 -2.04040520E+00  1.02020260E+00  1.02020260E+00 -2.04040520E+00
  1.02020260E+00  1.02020260E+00 -2.04040520E+00  1.02020260E+00  1.02020260E+00
 -2.04040520E+00  1.02020260E+00  1.02020260E+00 -2.04040520E+00  1.02020260E+00
  1.02020260E+00 -2.04040520E+00  1.02020260E+00  1.02020260E+00 -2.04040520E+00
  1.02020260E+00  1.02020260E+00 -2.04040520E+00  1.02020260E+00  1.02020260E+00
 -2.04040520E+00  1.02020260E+00  1.02020260E+00 -2.04040520E+00  1.02020260E+00
  1.02020260E+00 -2.04040520E+00  1.02020260E+00  1.02020260E+00 -2.04040520E+00
  1.02020260E+00  1.02020260E+00 -2.04040520E+00  1.02020260E+00  1.02020260E+00
 -2.04040520E+00  1.02020260E+00  1.02020260E+00 -2.04040520E+00  1.02020260E+00
  1.02020260E+00 -2.04040520E+00  1.02020260E+00  1.02020260E+00 -2.04040520E+00
  1.02020260E+00  1.02020260E+00 -2.04040520E+00  1.02020260E+00  1.02020260E+00
 -2.04040520E+00  1.02020260E+00  1.02020260E+00 -2.04040520E+00  1.02020260E+00
  1.02020260E+00 -2.04040520E+00  1.02020260E+00  1.02020260E+00 -2.04040520E+00
  1.02020260E+00  1.02020260E+00 -2.04040520E+00  1.02020260E+00  1.02020260E+00
 -2.04040520E+00  1.02020260E+00  1.02020260E+00 -2.04040520E+00  1.02020260E+00
  1.02020260E+00 -2.04040520E+00  1.02020260E+00  1.02020260E+00 -2.04040520E+00
  1.02020260E+00  1.02020260E+00 -2.04040520E+00  1.02020260E+00  1.02020260E+00
 -2.04040520E+00  1.02020260E+00  1.02020260E+00 -2.04040520E+00  1.02020260E+00
  1.02020260E+00 -2.04040520E+00  1.02020260E+00  1.02020260E+00 -2.04040520E+00
  1.02020260E+00  1.02020260E+00 -2.04040520E+00  1.02020260E+00  1.02020260E+00
 -2.04040520E+00  1.02020260E+00  1.02020260E+00 -2.04040520E+00  1.02020260E+00
  1.02020260E+00 -2.04040520E+00  1.02020260E+00  1.02020260E+00 -2.04040520E+00
  1.02020260E+00  1.02020260E+00 -2.04040520E+00  1.02020260E+00  1.02020260E+00
 -2.04040520E+00  1.02020260E+00  1.02020260E+00 -2.04040520E+00  1.02020260E+00
  1.02020260E+00 -2.04040520E+00  1.02020260E+00  1.02020260E+00 -2.04040520E+00
  1.02020260E+00  1.02020260E+00 -2.04040520E+00  1.02020260E+00  1.02020260E+00
 -2.04040520E+00  1.02020260E+00  1.02020260E+00 -2.04040520E+00  1.02020260E+00
  1.02020260E+00 -2.04040520E+00  1.02020260E+00  1.02020260E+00 -2.04040520E+00
  1.02020260E+00  1.02020260E+00 -2.04040520E+00  1.02020260E+00  1.02020260E+00
 -2.04040520E+00  1.02020260E+00  1.02020260E+00 -2.04040520E+00  1.02020260E+00
  1.02020260E+00 -2.04040520E+00  1.02020260E+00  1.02020260E+00 -2.04040520E+00
  1.02020260E+00  1.02020260E+00 -2.04040520E+00  1.02020260E+00  1.02020260E+00
 -2.04040520E+00  1.02020260E+00  1.02020260E+00 -2.04040520E+00  1.02020260E+00
  1.02020260E+00 -2.04040520E+00  1.02020260E+00  1.02020260E+00 -2.04040520E+00
  1.02020260E+00  1.02020260E+00 -2.04040520E+00  1.02020260E+00  1.02020260E+00
 -2.04040520E+00  1.02020260E+00  1.02020260E+00 -2.04040520E+00  1.02020260E+00
  1.02020260E+00 -2.04040520E+00  1.02020260E+00  1.02020260E+00 -2.04040520E+00
  1.02020260E+00  1.02020260E+00 -2.04040520E+00  1.02020260E+00  1.02020260E+00
 -2.04040520E+00  1.02020260E+00  1.02020260E+00 -2.04040520E+00  1.02020260E+00
  1.02020260E+00 -2.04040520E+00  1.02020260E+00  1.02020260E+00 -2.04040520E+00
  1.02020260E+00  1.02020260E+00 -2.04040520E+00  1.02020260E+00  1.02020260E+00
 -2.04040520E+00  1.02020260E+00  1.02020260E+00 -2.04040520E+00  1.02020260E+00
  1.02020260E+00 -2.04040520E+00  1.02020260E+00  1.02020260E+00 -2.04040520E+00
  1.02020260E+00  1.02020260E+00 -2.04040520E+00  1.02020260E+00  1.02020260E+00
 -2.04040520E+00  1.02020260E+00  1.02020260E+00 -2.04040520E+00  1.02020260E+00
  1.02020260E+00 -2.04040520E+00  1.02020260E+00  1.02020260E+00 -2.04040520E+00
  1.02020260E+00  1.02020260E+00 -2.04040520E+00  1.02020260E+00  1.02020260E+00
 -2.04040520E+00  1.02020260E+00  1.02020260E+00 -2.04040520E+00  1.02020260E+00
  1.02020260E+00 -2.04040520E+00  1.02020260E+00  1.02020260E+00 -2.04040520E+00
  1.02020260E+00  1.02020260E+00 -2.04040520E+00  1.02020260E+00  1.02020260E+00
 -2.04040520E+00  1.02020260E+00  1.02020260E+00 -2.04040520E+00  1.02020260E+00
  1.02020260E+00 -2.04040520E+00  1.02020260E+00  1.02020260E+00 -2.04040520E+00
  1.02020260E+00  1.02020260E+00 -2.04040520E+00  1.02020260E+00  1.02020260E+00
 -2.04040520E+00  1.02020260E+00  1.02020260E+00 -2.04040520E+00  1.02020260E+00
  1.02020260E+00 -2.04040520E+00  1.02020260E+00  1.02020260E+00 -2.04040520E+00
  1.02020260E+00  1.02020260E+00 -2.04040520E+00  1.02020260E+00  1.02020260E+00
 -2.04040520E+00  1.02020260E+00  1.02020260E+00 -2.04040520E+00  1.02020260E+00
  1.02020260E+00 -2.04040520E+00  1.02020260E+00  1.02020260E+00 -2.04040520E+00
  1.02020260E+00  1.02020260E+00 -2.04040520E+00  1.02020260E+00  1.02020260E+00
 -2.04040520E+00  1.02020260E+00  1.02020260E+00 -2.04040520E+00  1.02020260E+00
  1.02020260E+00 -2.04040520E+00  1.02020260E+00  1.02020260E+00 -2.04040520E+00
  1.02020260E+00  1.02020260E+00 -2.04040520E+00  1.02020260E+00  1.02020260E+00
 -2.04040520E+00  1.02020260E+00  1.02020260E+00 -2.04040520E+00  1.02020260E+00
  1.02020260E+00 -2.04040520E+00  1.02020260E+00  1.02020260E+00 -2.04040520E+00
  1.02020260E+00  1.02020260E+00 -2.04040520E+00  1.02020260E+00  1.02020260E+00
 -2.04040520E+00  1.02020260E+00  1.02020260E+00 -2.04040520E+00  1.02020260E+00
  1.02020260E+00 -2.04040520E+00  1.02020260E+00  1.02020260E+00 -2.04040520E+00
  1.02020260E+00  1.02020260E+00 -2.04040520E+00  1.02020260E+00  1.02020260E+00
 -2.04040520E+00  1.02020260E+00  1.02020260E+00 -2.04040520E+00  1.02020260E+00
  1.02020260E+00 -2.04040520E+00  1.02020260E+00  1.02020260E+00 -2.04040520E+00
  1.02020260E+00  1.02020260E+00 -2.04040520E+00  1.02020260E+00  1.02020260E+00
 -2.04040520E+00  1.02020260E+00  1.02020260E+00 -2.04040520E+00  1.02020260E+00
  1.02020260E+00 -2.04040520E+00  1.02020260E+00  1.02020260E+00 -2.04040520E+00
  1.02020260E+00  1.02020260E+00 -2.04040520E+00  1.02020260E+00  1.02020260E+00
 -2.04040520E+00  1.02020260E+00  1.02020260E+00 -2.04040520E+00  1.02020260E+00
  1.02020260E+00 -2.04040520E+00  1.02020260E+00  1.02020260E+00 -2.04040520E+00
  1.02020260E+00  1.02020260E+00 -2.04040520E+00  1.02020260E+00  1.02020260E+00
 -2.04040520E+00  1.02020260E+00  1.02020260E+00 -2.04040520E+00  1.02020260E+00
  1.02020260E+00 -2.04040520E+00  1.02020260E+00  1.02020260E+00 -2.04040520E+00
  1.02020260E+00  1.02020260E+00 -2.04040520E+00  1.02020260E+00  1.02020260E+00
 -2.04040520E+00  1.02020260E+00  1.02020260E+00 -2.04040520E+00  1.02020260E+00
  1.02020260E+00 -2.04040520E+00  1.02020260E+00  1.02020260E+00 -2.04040520E+00
  1.02020260E+00  1.02020260E+00 -2.04040520E+00  1.02020260E+00  1.02020260E+00
 -2.04040520E+00  1.02020260E+00  1.02020260E+00 -2.04040520E+00  1.02020260E+00
  1.02020260E+00 -2.04040520E+00  1.02020260E+00  1.02020260E+00 -2.04040520E+00
  1.02020260E+00  1.02020260E+00 -2.04040520E+00  1.02020260E+00  1.02020260E+00
 -2.04040520E+00  1.02020260E+00  1.02020260E+00 -2.04040520E+00  1.02020260E+00
  1.02020260E+00 -2.04040520E+00  1.02020260E+00  1.02020260E+00 -2.04040520E+00
  1.02020260E+00  1.02020260E+00 -2.04040520E+00  1.02020260E+00  1.02020260E+00
 -2.04040520E+00  1.02020260E+00  1.02020260E+00 -2.04040520E+00  1.02020260E+00
  1.02020260E+00 -2.04040520E+00  1.02020260E+00  1.02020260E+00 -2.04040520E+00
  1.02020260E+00  1.02020260E+00 -2.04040520E+00  1.02020260E+00  1.02020260E+00
 -2.04040520E+00  1.02020260E+00  1.02020260E+00 -2.04040520E+00  1.02020260E+00
  1.02020260E+00 -2.04040520E+00  1.02020260E+00  1.02020260E+00 -2.04040520E+00
  1.02020260E+00  1.02020260E+00 -2.04040520E+00  1.02020260E+00  1.02020260E+00
 -2.04040520E+00  1.02020260E+00  1.02020260E+00 -2.04040520E+00  1.02020260E+00
  1.02020260E+00 -2.04040520E+00  1.02020260E+00  1.02020260E+00 -2.04040520E+00
  1.02020260E+00  1.02020260E+00 -2.04040520E+00  1.02020260E+00  1.02020260E+00
 -2.04040520E+00  1.02020260E+00  1.02020260E+00 -2.04040520E+00  1.02020260E+00
  1.02020260E+00 -2.04040520E+00  1.02020260E+00  1.02020260E+00 -2.04040520E+00
  1.02020260E+00  1.02020260E+00 -2.04040520E+00  1.02020260E+00  1.02020260E+00
 -2.04040520E+00  1.02020260E+00  1.02020260E+00 -2.04040520E+00  1.02020260E+00
  1.02020260E+00 -2.04040520E+00  1.02020260E+00  1.02020260E+00 -2.04040520E+00
  1.02020260E+00  1.02020260E+00 -2.04040520E+00  1.02020260E+00  1.02020260E+00
 -2.04040520E+00  1.02020260E+00  1.02020260E+00 -2.04040520E+00  1.02020260E+00
  1.02020260E+00 -2.04040520E+00  1.02020260E+00  1.02020260E+00 -2.04040520E+00
  1.02020260E+00  1.02020260E+00 -2.04040520E+00  1.02020260E+00  1.02020260E+00
 -2.04040520E+00  1.02020260E+00  1.02020260E+00 -2.04040520E+00  1.02020260E+00
  1.02020260E+00 -2.04040520E+00  1.02020260E+00  1.02020260E+00 -2.04040520E+00
  1.02020260E+00  1.02020260E+00 -2.04040520E+00  1.02020260E+00  1.02020260E+00
 -2.04040520E+00  1.02020260E+00  1.02020260E+00 -2.04040520E+00  1.02020260E+00
  1.02020260E+00 -2.04040520E+00  1.02020260E+00  1.02020260E+00 -2.04040520E+00
  1.02020260E+00  1.02020260E+00 -2.04040520E+00  1.02020260E+00  1.02020260E+00
 -2.04040520E+00  1.02020260E+00  1.02020260E+00 -2.04040520E+00  1.02020260E+00
  1.02020260E+00 -2.04040520E+00  1.02020260E+00  1.02020260E+00 -2.04040520E+00
  1.02020260E+00  1.02020260E+00 -2.04040520E+00  1.02020260E+00  1.02020260E+00
 -2.04040520E+00  1.02020260E+00  1.02020260E+00 -2.04040520E+00  1.02020260E+00
  1.02020260E+00 -2.04040520E+00  1.02020260E+00  1.02020260E+00 -2.04040520E+00
  1.02020260E+00  1.02020260E+00 -2.04040520E+00  1.02020260E+00  1.02020260E+00
 -2.04040520E+00  1.02020260E+00  1.02020260E+00 -2.04040520E+00  1.02020260E+00
  1.02020260E+00 -2.04040520E+00  1.02020260E+00  1.02020260E+00 -2.04040520E+00
  1.02020260E+00  1.02020260E+00 -2.04040520E+00  1.02020260E+00  1.02020260E+00
 -2.04040520E+00  1.02020260E+00  1.02020260E+00 -2.04040520E+00  1.02020260E+00
  1.02020260E+00 -2.04040520E+00  1.02020260E+00  1.02020260E+00 -2.04040520E+00
  1.02020260E+00  1.02020260E+00 -2.04040520E+00  1.02020260E+00  1.02020260E+00
 -2.04040520E+00  1.02020260E+00  1.02020260E+00 -2.04040520E+00  1.02020260E+00
  1.02020260E+00 -2.04040520E+00  1.02020260E+00  1.02020260E+00 -2.04040520E+00
  1.02020260E+00  1.02020260E+00 -2.04040520E+00  1.02020260E+00  1.02020260E+00
 -2.04040520E+00  1.02020260E+00  1.02020260E+00 -2.04040520E+00  1.02020260E+00
  1.02020260E+00 -2.04040520E+00  1.02020260E+00  1.02020260E+00 -2.04040520E+00
  1.02020260E+00  1.02020260E+00 -2.04040520E+00  1.02020260E+00  1.02020260E+00
 -2.04040520E+00  1.02020260E+00  1.02020260E+00 -2.04040520E+00  1.02020260E+00
  1.02020260E+00 -2.04040520E+00  1.02020260E+00  1.02020260E+00 -2.04040520E+00
  1.02020260E+00  1.02020260E+00 -2.04040520E+00  1.02020260E+00  1.02020260E+00
 -2.04040520E+00  1.02020260E+00  1.02020260E+00 -2.04040520E+00  1.02020260E+00
  1.02020260E+00 -2.04040520E+00  1.02020260E+00  1.02020260E+00 -2.04040520E+00
  1.02020260E+00  1.02020260E+00 -2.04040520E+00  1.02020260E+00  1.02020260E+00
 -2.04040520E+00  1.02020260E+00  1.02020260E+00 -2.04040520E+00  1.02020260E+00
  1.02020260E+00 -2.04040520E+00  1.02020260E+00  1.02020260E+00 -2.04040520E+00
  1.02020260E+00  1.02020260E+00 -2.04040520E+00  1.02020260E+00  1.02020260E+00
 -2.04040520E+00  1.02020260E+00  1.02020260E+00 -2.04040520E+00  1.02020260E+00
  1.02020260E+00 -2.04040520E+00  1.02020260E+00  1.02020260E+00 -2.04040520E+00
  1.02020260E+00  1.02020260E+00 -2.04040520E+00  1.02020260E+00  1.02020260E+00
 -2.04040520E+00  1.02020260E+00  1.02020260E+00 -2.04040520E+00  1.02020260E+00
  1.02020260E+00 -2.04040520E+00  1.02020260E+00  1.02020260E+00 -2.04040520E+00
  1.02020260E+00  1.02020260E+00 -2.04040520E+00  1.02020260E+00  1.02020260E+00
 -2.04040520E+00  1.02020260E+00  1.02020260E+00 -2.04040520E+00  1.02020260E+00
  1.02020260E+00 -2.04040520E+00  1.02020260E+00  1.02020260E+00 -2.04040520E+00
  1.02020260E+00  1.02020260E+00 -2.04040520E+00  1.02020260E+00  1.02020260E+00
 -2.04040520E+00  1.02020260E+00  1.02020260E+00 -2.04040520E+00  1.02020260E+00
  1.02020260E+00 -2.04040520E+00  1.02020260E+00  1.02020260E+00 -2.04040520E+00
  1.02020260E+00  1.02020260E+00 -2.04040520E+00  1.02020260E+00  1.02020260E+00
 -2.04040520E+00  1.02020260E+00  1.02020260E+00 -2.04040520E+00  1.02020260E+00
  1.02020260E+00 -2.04040520E+00  1.02020260E+00  1.02020260E+00 -2.04040520E+00
  1.02020260E+00  1.02020260E+00 -2.04040520E+00  1.02020260E+00  1.02020260E+00
 -2.04040520E+00  1.02020260E+00  1.02020260E+00 -2.04040520E+00  1.02020260E+00
  1.02020260E+00 -2.04040520E+00  1.02020260E+00  1.02020260E+00 -2.04040520E+00
  1.02020260E+00  1.02020260E+00 -2.04040520E+00  1.02020260E+00  1.02020260E+00
 -2.04040520E+00  1.02020260E+00  1.02020260E+00 -2.04040520E+00  1.02020260E+00
  1.02020260E+00 -2.04040520E+00  1.02020260E+00  1.02020260E+00 -2.04040520E+00
  1.02020260E+00  1.02020260E+00 -2.04040520E+00  1.02020260E+00  1.02020260E+00
 -2.04040520E+00  1.02020260E+00  1.02020260E+00 -2.04040520E+00  1.02020260E+00
  1.02020260E+00 -2.04040520E+00  1.02020260E+00  1.02020260E+00 -2.04040520E+00
  1.02020260E+00  1.02020260E+00 -2.04040520E+00  1.02020260E+00  1.02020260E+00
 -2.04040520E+00  1.02020260E+00  1.02020260E+00 -2.04040520E+00  1.02020260E+00
  1.02020260E+00 -2.04040520E+00  1.02020260E+00  1.02020260E+00 -2.04040520E+00
  1.02020260E+00  1.02020260E+00 -2.04040520E+00  1.02020260E+00  1.02020260E+00
 -2.04040520E+00  1.02020260E+00  1.02020260E+00 -2.04040520E+00  1.02020260E+00
  1.02020260E+00 -2.04040520E+00  1.02020260E+00  1.02020260E+00 -2.04040520E+00
  1.02020260E+00  1.02020260E+00 -2.04040520E+00  1.02020260E+00  1.02020260E+00
 -2.04040520E+00  1.02020260E+00  1.02020260E+00 -2.04040520E+00  1.02020260E+00
  1.02020260E+00 -2.04040520E+00  1.02020260E+00  1.02020260E+00
%FLAG POL_GAUSS_RADII_LIST
%COMMENT   unit: Angstrom
%COMMENT   dimension = (1536=512*3)
%FORMAT(5E16.8)
  2.88687335E-01  2.88687335E-01  2.88687335E-01  2.88687335E-01  1.18636768E+00
  1.18636768E+00  1.18636768E+00  1.18636768E+00  6.05148582E-01  5.36229225E-01
  5.36229225E-01  6.05148582E-01  5.36229225E-01  5.36229225E-01  6.05148582E-01
  5.36229225E-01  5.36229225E-01  6.05148582E-01  5.36229225E-01  5.36229225E-01
  6.05148582E-01  5.36229225E-01  5.36229225E-01  6.05148582E-01  5.36229225E-01
  5.36229225E-01  6.05148582E-01  5.36229225E-01  5.36229225E-01  6.05148582E-01
  5.36229225E-01  5.36229225E-01  6.05148582E-01  5.36229225E-01  5.36229225E-01
  6.05148582E-01  5.36229225E-01  5.36229225E-01  6.05148582E-01  5.36229225E-01
  5.36229225E-01  6.05148582E-01  5.36229225E-01  5.36229225E-01  6.05148582E-01
  5.36229225E-01  5.36229225E-01  6.05148582E-01  5.36229225E-01  5.36229225E-01
  6.05148582E-01  5.36229225E-01  5.36229225E-01  6.05148582E-01  5.36229225E-01
  5.36229225E-01  6.05148582E-01  5.36229225E-01  5.36229225E-01  6.05148582E-01
  5.36229225E-01  5.36229225E-01  6.05148582E-01  5.36229225E-01  5.36229225E-01
  6.05148582E-01  5.36229225E-01  5.36229225E-01  6.05148582E-01  5.36229225E-01
  5.36229225E-01  6.05148582E-01  5.36229225E-01  5.36229225E-01  6.05148582E-01
  5.36229225E-01  5.36229225E-01  6.05148582E-01  5.36229225E-01  5.36229225E-01
  6.05148582E-01  5.36229225E-01  5.36229225E-01  6.05148582E-01  5.36229225E-01
  5.36229225E-01  6.05148582E-01  5.36229225E-01  5.36229225E-01  6.05148582E-01
  5.36229225E-01  5.36229225E-01  6.05148582E-01  5.36229225E-01  5.36229225E-01
  6.05148582E-01  5.36229225E-01  5.36229225E-01  6.05148582E-01  5.36229225E-01
  5.36229225E-01  6.05148582E-01  5.36229225E-01  5.36229225E-01  6.05148582E-01
  5.36229225E-01  5.36229225E-01  6.05148582E-01  5.36229225E-01  5.36229225E-01
  6.05148582E-01  5.36229225E-01  5.36229225E-01  6.05148582E-01  5.36229225E-01
  5.36229225E-01  6.05148582E-01  5.36229225E-01  5.36229225E-01  6.05148582E-01
  5.36229225E-01  5.36229225E-01  6.05148582E-01  5.36229225E-01  5.36229225E-01
  6.05148582E-01  5.36229225E-01  5.36229225E-01  6.05148582E-01  5.36229225E-01
  5.36229225E-01  6.05148582E-01  5.36229225E-01  5.36229225E-01  6.05148582E-01
  5.36229225E-01  5.36229225E-01  6.05148582E-01  5.36229225E-01  5.36229225E-01
  6.05148582E-01  5.36229225E-01  5.36229225E-01  6.05148582E-01  5.36229225E-01
  5.36229225E-01  6.05148582E-01  5.36229225E-01  5.36229225E-01  6.05148582E-01
  5.36229225E-01  5.36229225E-01  6.05148582E-01  5.36229225E-01  5.36229225E-01
  6.05148582E-01  5.36229225E-01  5.36229225E-01  6.05148582E-01  5.36229225E-01
  5.36229225E-01  6.05148582E-01  5.36229225E-01  5.36229225E-01  6.05148582E-01
  5.36229225E-01  5.36229225E-01  6.05148582E-01  5.36229225E-01  5.36229225E-01
  6.05148582E-01  5.36229225E-01  5.36229225E-01  6.05148582E-01  5.36229225E-01
  5.36229225E-01  6.05148582E-01  5.36229225E-01  5.36229225E-01  6.05148582E-01
  5.36229225E-01  5.36229225E-01  6.05148582E-01  5.36229225E-01  5.36229225E-01
  6.05148582E-01  5.36229225E-01  5.36229225E-01  6.05148582E-01  5.36229225E-01
  5.36229225E-01  6.05148582E-01  5.36229225E-01  5.36229225E-01  6.05148582E-01
  5.36229225E-01  5.36229225E-01  6.05148582E-01  5.36229225E-01  5.36229225E-01
  6.05148582E-01  5.36229225E-01  5.36229225E-01  6.05148582E-01  5.36229225E-01
  5.36229225E-01  6.05148582E-01  5.36229225E-01  5.36229225E-01  6.05148582E-01
  5.36229225E-01  5.36229225E-01  6.05148582E-01  5.36229225E-01  5.36229225E-01
  6.05148582E-01  5.36229225E-01  5.36229225E-01  6.05148582E-01  5.36229225E-01
  5.36229225E-01  6.05148582E-01  5.36229225E-01  5.36229225E-01  6.05148582E-01
  5.36229225E-01  5.36229225E-01  6.05148582E-01  5.36229225E-01  5.36229225E-01
  6.05148582E-01  5.36229225E-01  5.36229225E-01  6.05148582E-01  5.36229225E-01
  5.36229225E-01  6.05148582E-01  5.36229225E-01  5.36229225E-01  6.05148582E-01
  5.36229225E-01  5.36229225E-01  6.05148582E-01  5.36229225E-01  5.36229225E-01
  6.05148582E-01  5.36229225E-01  5.36229225E-01  6.05148582E-01  5.36229225E-01
  5.36229225E-01  6.05148582E-01  5.36229225E-01  5.36229225E-01  6.05148582E-01
  5.36229225E-01  5.36229225E-01  6.05148582E-01  5.36229225E-01  5.36229225E-01
  6.05148582E-01  5.36229225E-01  5.36229225E-01  6.05148582E-01  5.36229225E-01
  5.36229225E-01  6.05148582E-01  5.36229225E-01  5.36229225E-01  6.05148582E-01
  5.36229225E-01  5.36229225E-01  6.05148582E-01  5.36229225E-01  5.36229225E-01
  6.05148582E-01  5.36229225E-01  5.36229225E-01  6.05148582E-01  5.36229225E-01
  5.36229225E-01  6.05148582E-01  5.36229225E-01  5.36229225E-01  6.05148582E-01
  5.36229225E-01  5.36229225E-01  6.05148582E-01  5.36229225E-01  5.36229225E-01
  6.05148582E-01  5.36229225E-01  5.36229225E-01  6.05148582E-01  5.36229225E-01
  5.36229225E-01  6.05148582E-01  5.36229225E-01  5.36229225E-01  6.05148582E-01
  5.36229225E-01  5.36229225E-01  6.05148582E-01  5.36229225E-01  5.36229225E-01
  6.05148582E-01  5.36229225E-01  5.36229225E-01  6.05148582E-01  5.36229225E-01
  5.36229225E-01  6.05148582E-01  5.36229225E-01  5.36229225E-01  6.05148582E-01
  5.36229225E-01  5.36229225E-01  6.05148582E-01  5.36229225E-01  5.36229225E-01
  6.05148582E-01  5.36229225E-01  5.36229225E-01  6.05148582E-01  5.36229225E-01
  5.36229225E-01  6.05148582E-01  5.36229225E-01  5.36229225E-01  6.05148582E-01
  5.36229225E-01  5.36229225E-01  6.05148582E-01  5.36229225E-01  5.36229225E-01
  6.05148582E-01  5.36229225E-01  5.36229225E-01  6.05148582E-01  5.36229225E-01
  5.36229225E-01  6.05148582E-01  5.36229225E-01  5.36229225E-01  6.05148582E-01
  5.36229225E-01  5.36229225E-01  6.05148582E-01  5.36229225E-01  5.36229225E-01
  6.05148582E-01  5.36229225E-01  5.36229225E-01  6.05148582E-01  5.36229225E-01
  5.36229225E-01  6.05148582E-01  5.36229225E-01  5.36229225E-01  6.05148582E-01
  5.36229225E-01  5.36229225E-01  6.05148582E-01  5.36229225E-01  5.36229225E-01
  6.05148582E-01  5.36229225E-01  5.36229225E-01  6.05148582E-01  5.36229225E-01
  5.36229225E-01  6.05148582E-01  5.36229225E-01  5.36229225E-01  6.05148582E-01
  5.36229225E-01  5.36229225E-01  6.05148582E-01  5.36229225E-01  5.36229225E-01
  6.05148582E-01  5.36229225E-01  5.36229225E-01  6.05148582E-01  5.36229225E-01
  5.36229225E-01  6.05148582E-01  5.36229225E-01  5.36229225E-01  6.05148582E-01
  5.36229225E-01  5.36229225E-01  6.05148582E-01  5.36229225E-01  5.36229225E-01
  6.05148582E-01  5.36229225E-01  5.36229225E-01  6.05148582E-01  5.36229225E-01
  5.36229225E-01  6.05148582E-01  5.36229225E-01  5.36229225E-01  6.05148582E-01
  5.36229225E-01  5.36229225E-01  6.05148582E-01  5.36229225E-01  5.36229225E-01
  6.05148582E-01  5.36229225E-01  5.36229225E-01  6.05148582E-01  5.36229225E-01
  5.36229225E-01  6.05148582E-01  5.36229225E-01  5.36229225E-01  6.05148582E-01
  5.36229225E-01  5.36229225E-01  6.05148582E-01  5.36229225E-01  5.36229225E-01
  6.05148582E-01  5.36229225E-01  5.36229225E-01  6.05148582E-01  5.36229225E-01
  5.36229225E-01  6.05148582E-01  5.36229225E-01  5.36229225E-01  6.05148582E-01
  5.36229225E-01  5.36229225E-01  6.05148582E-01  5.36229225E-01  5.36229225E-01
  6.05148582E-01  5.36229225E-01  5.36229225E-01  6.05148582E-01  5.36229225E-01
  5.36229225E-01  6.05148582E-01  5.36229225E-01  5.36229225E-01  6.05148582E-01
  5.36229225E-01  5.36229225E-01  6.05148582E-01  5.36229225E-01  5.36229225E-01
  6.05148582E-01  5.36229225E-01  5.36229225E-01  6.05148582E-01  5.36229225E-01
  5.36229225E-01  6.05148582E-01  5.36229225E-01  5.36229225E-01  6.05148582E-01
  5.36229225E-01  5.36229225E-01  6.05148582E-01  5.36229225E-01  5.36229225E-01
  6.05148582E-01  5.36229225E-01  5.36229225E-01  6.05148582E-01  5.36229225E-01
  5.36229225E-01  6.05148582E-01  5.36229225E-01  5.36229225E-01  6.05148582E-01
  5.36229225E-01  5.36229225E-01  6.05148582E-01  5.36229225E-01  5.36229225E-01
  6.05148582E-01  5.36229225E-01  5.36229225E-01  6.05148582E-01  5.36229225E-01
  5.36229225E-01  6.05148582E-01  5.36229225E-01  5.36229225E-01  6.05148582E-01
  5.36229225E-01  5.36229225E-01  6.05148582E-01  5.36229225E-01  5.36229225E-01
  6.05148582E-01  5.36229225E-01  5.36229225E-01  6.05148582E-01  5.36229225E-01
  5.36229225E-01  6.05148582E-01  5.36229225E-01  5.36229225E-01  6.05148582E-01
  5.36229225E-01  5.36229225E-01  6.05148582E-01  5.36229225E-01  5.36229225E-01
  6.05148582E-01  5.36229225E-01  5.36229225E-01  6.05148582E-01  5.36229225E-01
  5.36229225E-01  6.05148582E-01  5.36229225E-01  5.36229225E-01  6.05148582E-01
  5.36229225E-01  5.36229225E-01  6.05148582E-01  5.36229225E-01  5.36229225E-01
  6.05148582E-01  5.36229225E-01  5.36229225E-01  6.05148582E-01  5.36229225E-01
  5.36229225E-01  6.05148582E-01  5.36229225E-01  5.36229225E-01  6.05148582E-01
  5.36229225E-01  5.36229225E-01  6.05148582E-01  5.36229225E-01  5.36229225E-01
  6.05148582E-01  5.36229225E-01  5.36229225E-01  6.05148582E-01  5.36229225E-01
  5.36229225E-01  6.05148582E-01  5.36229225E-01  5.36229225E-01  6.05148582E-01
  5.36229225E-01  5.36229225E-01  6.05148582E-01  5.36229225E-01  5.36229225E-01
  6.05148582E-01  5.36229225E-01  5.36229225E-01  6.05148582E-01  5.36229225E-01
  5.36229225E-01  6.05148582E-01  5.36229225E-01  5.36229225E-01  6.05148582E-01
  5.36229225E-01  5.36229225E-01  6.05148582E-01  5.36229225E-01  5.36229225E-01
  6.05148582E-01  5.36229225E-01  5.36229225E-01  6.05148582E-01  5.36229225E-01
  5.36229225E-01  6.05148582E-01  5.36229225E-01  5.36229225E-01  6.05148582E-01
  5.36229225E-01  5.36229225E-01  6.05148582E-01  5.36229225E-01  5.36229225E-01
  6.05148582E-01  5.36229225E-01  5.36229225E-01  6.05148582E-01  5.36229225E-01
  5.36229225E-01  6.05148582E-01  5.36229225E-01  5.36229225E-01  6.05148582E-01
  5.36229225E-01  5.36229225E-01  6.05148582E-01  5.36229225E-01  5.36229225E-01
  6.05148582E-01  5.36229225E-01  5.36229225E-01  6.05148582E-01  5.36229225E-01
  5.36229225E-01  6.05148582E-01  5.36229225E-01  5.36229225E-01  6.05148582E-01
  5.36229225E-01  5.36229225E-01  6.05148582E-01  5.36229225E-01  5.36229225E-01
  6.05148582E-01  5.36229225E-01  5.36229225E-01  6.05148582E-01  5.36229225E-01
  5.36229225E-01  6.05148582E-01  5.36229225E-01  5.36229225E-01  6.05148582E-01
  5.36229225E-01  5.36229225E-01  6.05148582E-01  5.36229225E-01  5.36229225E-01
  6.05148582E-01  5.36229225E-01  5.36229225E-01  6.05148582E-01  5.36229225E-01
  5.36229225E-01  6.05148582E-01  5.36229225E-01  5.36229225E-01  6.05148582E-01
  5.36229225E-01  5.36229225E-01  6.05148582E-01  5.36229225E-01  5.36229225E-01
  6.05148582E-01  5.36229225E-01  5.36229225E-01  6.05148582E-01  5.36229225E-01
  5.36229225E-01  6.05148582E-01  5.36229225E-01  5.36229225E-01  6.05148582E-01
  5.36229225E-01  5.36229225E-01  6.05148582E-01  5.36229225E-01  5.36229225E-01
  6.05148582E-01  5.36229225E-01  5.36229225E-01  6.05148582E-01  5.36229225E-01
  5.36229225E-01  6.05148582E-01  5.36229225E-01  5.36229225E-01  6.05148582E-01
  5.36229225E-01  5.36229225E-01  6.05148582E-01  5.36229225E-01  5.36229225E-01
  6.05148582E-01  5.36229225E-01  5.36229225E-01  6.05148582E-01  5.36229225E-01
  5.36229225E-01  6.05148582E-01  5.36229225E-01  5.36229225E-01  6.05148582E-01
  5.36229225E-01  5.36229225E-01  6.05148582E-01  5.36229225E-01  5.36229225E-01
  6.05148582E-01  5.36229225E-01  5.36229225E-01  6.05148582E-01  5.36229225E-01
  5.36229225E-01  6.05148582E-01  5.36229225E-01  5.36229225E-01  6.05148582E-01
  5.36229225E-01  5.36229225E-01  6.05148582E-01  5.36229225E-01  5.36229225E-01
  6.05148582E-01  5.36229225E-01  5.36229225E-01  6.05148582E-01  5.36229225E-01
  5.36229225E-01  6.05148582E-01  5.36229225E-01  5.36229225E-01  6.05148582E-01
  5.36229225E-01  5.36229225E-01  6.05148582E-01  5.36229225E-01  5.36229225E-01
  6.05148582E-01  5.36229225E-01  5.36229225E-01  6.05148582E-01  5.36229225E-01
  5.36229225E-01  6.05148582E-01  5.36229225E-01  5.36229225E-01  6.05148582E-01
  5.36229225E-01  5.36229225E-01  6.05148582E-01  5.36229225E-01  5.36229225E-01
  6.05148582E-01  5.36229225E-01  5.36229225E-01  6.05148582E-01  5.36229225E-01
  5.36229225E-01  6.05148582E-01  5.36229225E-01  5.36229225E-01  6.05148582E-01
  5.36229225E-01  5.36229225E-01  6.05148582E-01  5.36229225E-01  5.36229225E-01
  6.05148582E-01  5.36229225E-01  5.36229225E-01  6.05148582E-01  5.36229225E-01
  5.36229225E-01  6.05148582E-01  5.36229225E-01  5.36229225E-01  6.05148582E-01
  5.36229225E-01  5.36229225E-01  6.05148582E-01  5.36229225E-01  5.36229225E-01
  6.05148582E-01  5.36229225E-01  5.36229225E-01  6.05148582E-01  5.36229225E-01
  5.36229225E-01  6.05148582E-01  5.36229225E-01  5.36229225E-01  6.05148582E-01
  5.36229225E-01  5.36229225E-01  6.05148582E-01  5.36229225E-01  5.36229225E-01
  6.05148582E-01  5.36229225E-01  5.36229225E-01  6.05148582E-01  5.36229225E-01
  5.36229225E-01  6.05148582E-01  5.36229225E-01  5.36229225E-01  6.05148582E-01
  5.36229225E-01  5.36229225E-01  6.05148582E-01  5.36229225E-01  5.36229225E-01
  6.05148582E-01  5.36229225E-01  5.36229225E-01  6.05148582E-01  5.36229225E-01
  5.36229225E-01  6.05148582E-01  5.36229225E-01  5.36229225E-01  6.05148582E-01
  5.36229225E-01  5.36229225E-01  6.05148582E-01  5.36229225E-01  5.36229225E-01
  6.05148582E-01  5.36229225E-01  5.36229225E-01  6.05148582E-01  5.36229225E-01
  5.36229225E-01  6.05148582E-01  5.36229225E-01  5.36229225E-01  6.05148582E-01
  5.36229225E-01  5.36229225E-01  6.05148582E-01  5.36229225E-01  5.36229225E-01
  6.05148582E-01  5.36229225E-01  5.36229225E-01  6.05148582E-01  5.36229225E-01
  5.36229225E-01  6.05148582E-01  5.36229225E-01  5.36229225E-01  6.05148582E-01
  5.36229225E-01  5.36229225E-01  6.05148582E-01  5.36229225E-01  5.36229225E-01
  6.05148582E-01  5.36229225E-01  5.36229225E-01  6.05148582E-01  5.36229225E-01
  5.36229225E-01  6.05148582E-01  5.36229225E-01  5.36229225E-01  6.05148582E-01
  5.36229225E-01  5.36229225E-01  6.05148582E-01  5.36229225E-01  5.36229225E-01
  6.05148582E-01  5.36229225E-01  5.36229225E-01  6.05148582E-01  5.36229225E-01
  5.36229225E-01  6.05148582E-01  5.36229225E-01  5.36229225E-01  6.05148582E-01
  5.36229225E-01  5.36229225E-01  6.05148582E-01  5.36229225E-01  5.36229225E-01
  6.05148582E-01  5.36229225E-01  5.36229225E-01  6.05148582E-01  5.36229225E-01
  5.36229225E-01  6.05148582E-01  5.36229225E-01  5.36229225E-01  6.05148582E-01
  5.36229225E-01  5.36229225E-01  6.05148582E-01  5.36229225E-01  5.36229225E-01
  6.05148582E-01  5.36229225E-01  5.36229225E-01  6.05148582E-01  5.36229225E-01
  5.36229225E-01  6.05148582E-01  5.36229225E-01  5.36229225E-01  6.05148582E-01
  5.36229225E-01  5.36229225E-01  6.05148582E-01  5.36229225E-01  5.36229225E-01
  6.05148582E-01  5.36229225E-01  5.36229225E-01  6.05148582E-01  5.36229225E-01
  5.36229225E-01  6.05148582E-01  5.36229225E-01  5.36229225E-01  6.05148582E-01
  5.36229225E-01  5.36229225E-01  6.05148582E-01  5.36229225E-01  5.36229225E-01
  6.05148582E-01  5.36229225E-01  5.36229225E-01  6.05148582E-01  5.36229225E-01
  5.36229225E-01  6.05148582E-01  5.36229225E-01  5.36229225E-01  6.05148582E-01
  5.36229225E-01  5.36229225E-01  6.05148582E-01  5.36229225E-01  5.36229225E-01
  6.05148582E-01  5.36229225E-01  5.36229225E-01  6.05148582E-01  5.36229225E-01
  5.36229225E-01  6.05148582E-01  5.36229225E-01  5.36229225E-01  6.05148582E-01
  5.36229225E-01  5.36229225E-01  6.05148582E-01  5.36229225E-01  5.36229225E-01
  6.05148582E-01  5.36229225E-01  5.36229225E-01  6.05148582E-01  5.36229225E-01
  5.36229225E-01  6.05148582E-01  5.36229225E-01  5.36229225E-01  6.05148582E-01
  5.36229225E-01  5.36229225E-01  6.05148582E-01  5.36229225E-01  5.36229225E-01
  6.05148582E-01  5.36229225E-01  5.36229225E-01  6.05148582E-01  5.36229225E-01
  5.36229225E-01  6.05148582E-01  5.36229225E-01  5.36229225E-01  6.05148582E-01
  5.36229225E-01  5.36229225E-01  6.05148582E-01  5.36229225E-01  5.36229225E-01
  6.05148582E-01  5.36229225E-01  5.36229225E-01  6.05148582E-01  5.36229225E-01
  5.36229225E-01  6.05148582E-01  5.36229225E-01  5.36229225E-01  6.05148582E-01
  5.36229225E-01  5.36229225E-01  6.05148582E-01  5.36229225E-01  5.36229225E-01
  6.05148582E-01  5.36229225E-01  5.36229225E-01  6.05148582E-01  5.36229225E-01
  5.36229225E-01  6.05148582E-01  5.36229225E-01  5.36229225E-01  6.05148582E-01
  5.36229225E-01  5.36229225E-01  6.05148582E-01  5.36229225E-01  5.36229225E-01
  6.05148582E-01  5.36229225E-01  5.36229225E-01  6.05148582E-01  5.36229225E-01
  5.36229225E-01  6.05148582E-01  5.36229225E-01  5.36229225E-01  6.05148582E-01
  5.36229225E-01  5.36229225E-01  6.05148582E-01  5.36229225E-01  5.36229225E-01
  6.05148582E-01  5.36229225E-01  5.36229225E-01  6.05148582E-01  5.36229225E-01
  5.36229225E-01  6.05148582E-01  5.36229225E-01  5.36229225E-01  6.05148582E-01
  5.36229225E-01  5.36229225E-01  6.05148582E-01  5.36229225E-01  5.36229225E-01
  6.05148582E-01  5.36229225E-01  5.36229225E-01  6.05148582E-01  5.36229225E-01
  5.36229225E-01  6.05148582E-01  5.36229225E-01  5.36229225E-01  6.05148582E-01
  5.36229225E-01  5.36229225E-01  6.05148582E-01  5.36229225E-01  5.36229225E-01
  6.05148582E-01  5.36229225E-01  5.36229225E-01  6.05148582E-01  5.36229225E-01
  5.36229225E-01  6.05148582E-01  5.36229225E-01  5.36229225E-01  6.05148582E-01
  5.36229225E-01  5.36229225E-01  6.05148582E-01  5.36229225E-01  5.36229225E-01
  6.05148582E-01  5.36229225E-01  5.36229225E-01  6.05148582E-01  5.36229225E-01
  5.36229225E-01  6.05148582E-01  5.36229225E-01  5.36229225E-01  6.05148582E-01
  5.36229225E-01  5.36229225E-01  6.05148582E-01  5.36229225E-01  5.36229225E-01
  6.05148582E-01  5.36229225E-01  5.36229225E-01  6.05148582E-01  5.36229225E-01
  5.36229225E-01  6.05148582E-01  5.36229225E-01  5.36229225E-01  6.05148582E-01
  5.36229225E-01  5.36229225E-01  6.05148582E-01  5.36229225E-01  5.36229225E-01
  6.05148582E-01  5.36229225E-01  5.36229225E-01  6.05148582E-01  5.36229225E-01
  5.36229225E-01  6.05148582E-01  5.36229225E-01  5.36229225E-01  6.05148582E-01
  5.36229225E-01  5.36229225E-01  6.05148582E-01  5.36229225E-01  5.36229225E-01
  6.05148582E-01  5.36229225E-01  5.36229225E-01  6.05148582E-01  5.36229225E-01
  5.36229225E-01  6.05148582E-01  5.36229225E-01  5.36229225E-01  6.05148582E-01
  5.36229225E-01  5.36229225E-01  6.05148582E-01  5.36229225E-01  5.36229225E-01
  6.05148582E-01  5.36229225E-01  5.36229225E-01  6.05148582E-01  5.36229225E-01
  5.36229225E-01  6.05148582E-01  5.36229225E-01  5.36229225E-01  6.05148582E-01
  5.36229225E-01  5.36229225E-01  6.05148582E-01  5.36229225E-01  5.36229225E-01
  6.05148582E-01  5.36229225E-01  5.36229225E-01  6.05148582E-01  5.36229225E-01
  5.36229225E-01  6.05148582E-01  5.36229225E-01  5.36229225E-01  6.05148582E-01
  5.36229225E-01  5.36229225E-01  6.05148582E-01  5.36229225E-01  5.36229225E-01
  6.05148582E-01  5.36229225E-01  5.36229225E-01  6.05148582E-01  5.36229225E-01
  5.36229225E-01  6.05148582E-01  5.36229225E-01  5.36229225E-01  6.05148582E-01
  5.36229225E-01  5.36229225E-01  6.05148582E-01  5.36229225E-01  5.36229225E-01
  6.05148582E-01  5.36229225E-01  5.36229225E-01  6.05148582E-01  5.36229225E-01
  5.36229225E-01  6.05148582E-01  5.36229225E-01  5.36229225E-01  6.05148582E-01
  5.36229225E-01  5.36229225E-01  6.05148582E-01  5.36229225E-01  5.36229225E-01
  6.05148582E-01  5.36229225E-01  5.36229225E-01  6.05148582E-01  5.36229225E-01
  5.36229225E-01  6.05148582E-01  5.36229225E-01  5.36229225E-01  6.05148582E-01
  5.36229225E-01  5.36229225E-01  6.05148582E-01  5.36229225E-01  5.36229225E-01
  6.05148582E-01  5.36229225E-01  5.36229225E-01  6.05148582E-01  5.36229225E-01
  5.36229225E-01  6.05148582E-01  5.36229225E-01  5.36229225E-01  6.05148582E-01
  5.36229225E-01  5.36229225E-01  6.05148582E-01  5.36229225E-01  5.36229225E-01
  6.05148582E-01  5.36229225E-01  5.36229225E-01  6.05148582E-01  5.36229225E-01
  5.36229225E-01  6.05148582E-01  5.36229225E-01  5.36229225E-01  6.05148582E-01
  5.36229225E-01  5.36229225E-01  6.05148582E-01  5.36229225E-01  5.36229225E-01
  6.05148582E-01  5.36229225E-01  5.36229225E-01  6.05148582E-01  5.36229225E-01
  5.36229225E-01  6.05148582E-01  5.36229225E-01  5.36229225E-01  6.05148582E-01
  5.36229225E-01  5.36229225E-01  6.05148582E-01  5.36229225E-01  5.36229225E-01
  6.05148582E-01  5.36229225E-01  5.36229225E-01  6.05148582E-01  5.36229225E-01
  5.36229225E-01  6.05148582E-01  5.36229225E-01  5.36229225E-01  6.05148582E-01
  5.36229225E-01  5.36229225E-01  6.05148582E-01  5.36229225E-01  5.36229225E-01
  6.05148582E-01  5.36229225E-01  5.36229225E-01  6.05148582E-01  5.36229225E-01
  5.36229225E-01  6.05148582E-01  5.36229225E-01  5.36229225E-01  6.05148582E-01
  5.36229225E-01  5.36229225E-01  6.05148582E-01  5.36229225E-01  5.36229225E-01
  6.05148582E-01  5.36229225E-01  5.36229225E-01  6.05148582E-01  5.36229225E-01
  5.36229225E-01  6.05148582E-01  5.36229225E-01  5.36229225E-01  6.05148582E-01
  5.36229225E-01  5.36229225E-01  6.05148582E-01  5.36229225E-01  5.36229225E-01
  6.05148582E-01  5.36229225E-01  5.36229225E-01  6.05148582E-01  5.36229225E-01
  5.36229225E-01  6.05148582E-01  5.36229225E-01  5.36229225E-01  6.05148582E-01
  5.36229225E-01  5.36229225E-01  6.05148582E-01  5.36229225E-01  5.36229225E-01
  6.05148582E-01  5.36229225E-01  5.36229225E-01  6.05148582E-01  5.36229225E-01
  5.36229225E-01  6.05148582E-01  5.36229225E-01  5.36229225E-01  6.05148582E-01
  5.36229225E-01  5.36229225E-01  6.05148582E-01  5.36229225E-01  5.36229225E-01
  6.05148582E-01  5.36229225E-01  5.36229225E-01  6.05148582E-01  5.36229225E-01
  5.36229225E-01  6.05148582E-01  5.36229225E-01  5.36229225E-01  6.05148582E-01
  5.36229225E-01  5.36229225E-01  6.05148582E-01  5.36229225E-01  5.36229225E-01
  6.05148582E-01  5.36229225E-01  5.36229225E-01  6.05148582E-01  5.36229225E-01
  5.36229225E-01  6.05148582E-01  5.36229225E-01  5.36229225E-01  6.05148582E-01
  5.36229225E-01  5.36229225E-01  6.05148582E-01  5.36229225E-01  5.36229225E-01
  6.05148582E-01  5.36229225E-01  5.36229225E-01  6.05148582E-01  5.36229225E-01
  5.36229225E-01  6.05148582E-01  5.36229225E-01  5.36229225E-01  6.05148582E-01
  5.36229225E-01  5.36229225E-01  6.05148582E-01  5.36229225E-01  5.36229225E-01
  6.05148582E-01  5.36229225E-01  5.36229225E-01  6.05148582E-01  5.36229225E-01
  5.36229225E-01  6.05148582E-01  5.36229225E-01  5.36229225E-01  6.05148582E-01
  5.36229225E-01  5.36229225E-01  6.05148582E-01  5.36229225E-01  5.36229225E-01
  6.05148582E-01  5.36229225E-01  5.36229225E-01  6.05148582E-01  5.36229225E-01
  5.36229225E-01  6.05148582E-01  5.36229225E-01  5.36229225E-01  6.05148582E-01
  5.36229225E-01  5.36229225E-01  6.05148582E-01  5.36229225E-01  5.36229225E-01
  6.05148582E-01  5.36229225E-01  5.36229225E-01  6.05148582E-01  5.36229225E-01
  5.36229225E-01  6.05148582E-01  5.36229225E-01  5.36229225E-01  6.05148582E-01
  5.36229225E-01  5.36229225E-01  6.05148582E-01  5.36229225E-01  5.36229225E-01
  6.05148582E-01  5.36229225E-01  5.36229225E-01  6.05148582E-01  5.36229225E-01
  5.36229225E-01  6.05148582E-01  5.36229225E-01  5.36229225E-01  6.05148582E-01
  5.36229225E-01  5.36229225E-01  6.05148582E-01  5.36229225E-01  5.36229225E-01
  6.05148582E-01  5.36229225E-01  5.36229225E-01  6.05148582E-01  5.36229225E-01
  5.36229225E-01  6.05148582E-01  5.36229225E-01  5.36229225E-01  6.05148582E-01
  5.36229225E-01  5.36229225E-01  6.05148582E-01  5.36229225E-01  5.36229225E-01
  6.05148582E-01  5.36229225E-01  5.36229225E-01  6.05148582E-01  5.36229225E-01
  5.36229225E-01  6.05148582E-01  5.36229225E-01  5.36229225E-01  6.05148582E-01
  5.36229225E-01  5.36229225E-01  6.05148582E-01  5.36229225E-01  5.36229225E-01
  6.05148582E-01  5.36229225E-01  5.36229225E-01  6.05148582E-01  5.36229225E-01
  5.36229225E-01  6.05148582E-01  5.36229225E-01  5.36229225E-01  6.05148582E-01
  5.36229225E-01  5.36229225E-01  6.05148582E-01  5.36229225E-01  5.36229225E-01
  6.05148582E-01  5.36229225E-01  5.36229225E-01  6.05148582E-01  5.36229225E-01
  5.36229225E-01  6.05148582E-01  5.36229225E-01  5.36229225E-01  6.05148582E-01
  5.36229225E-01  5.36229225E-01  6.05148582E-01  5.36229225E-01  5.36229225E-01
  6.05148582E-01  5.36229225E-01  5.36229225E-01  6.05148582E-01  5.36229225E-01
  5.36229225E-01  6.05148582E-01  5.36229225E-01  5.36229225E-01  6.05148582E-01
  5.36229225E-01  5.36229225E-01  6.05148582E-01  5.36229225E-01  5.36229225E-01
  6.05148582E-01  5.36229225E-01  5.36229225E-01  6.05148582E-01  5.36229225E-01
  5.36229225E-01  6.05148582E-01  5.36229225E-01  5.36229225E-01  6.05148582E-01
  5.36229225E-01  5.36229225E-01  6.05148582E-01  5.36229225E-01  5.36229225E-01
  6.05148582E-01  5.36229225E-01  5.36229225E-01  6.05148582E-01  5.36229225E-01
  5.36229225E-01  6.05148582E-01  5.36229225E-01  5.36229225E-01  6.05148582E-01
  5.36229225E-01  5.36229225E-01  6.05148582E-01  5.36229225E-01  5.36229225E-01
  6.05148582E-01  5.36229225E-01  5.36229225E-01  6.05148582E-01  5.36229225E-01
  5.36229225E-01  6.05148582E-01  5.36229225E-01  5.36229225E-01  6.05148582E-01
  5.36229225E-01  5.36229225E-01  6.05148582E-01  5.36229225E-01  5.36229225E-01
  6.05148582E-01  5.36229225E-01  5.36229225E-01  6.05148582E-01  5.36229225E-01
  5.36229225E-01  6.05148582E-01  5.36229225E-01  5.36229225E-01  6.05148582E-01
  5.36229225E-01  5.36229225E-01  6.05148582E-01  5.36229225E-01  5.36229225E-01
  6.05148582E-01  5.36229225E-01  5.36229225E-01  6.05148582E-01  5.36229225E-01
  5.36229225E-01  6.05148582E-01  5.36229225E-01  5.36229225E-01  6.05148582E-01
  5.36229225E-01  5.36229225E-01  6.05148582E-01  5.36229225E-01  5.36229225E-01
  6.05148582E-01  5.36229225E-01  5.36229225E-01  6.05148582E-01  5.36229225E-01
  5.36229225E-01  6.05148582E-01  5.36229225E-01  5.36229225E-01  6.05148582E-01
  5.36229225E-01  5.36229225E-01  6.05148582E-01  5.36229225E-01  5.36229225E-01
  6.05148582E-01  5.36229225E-01  5.36229225E-01  6.05148582E-01  5.36229225E-01
  5.36229225E-01  6.05148582E-01  5.36229225E-01  5.36229225E-01  6.05148582E-01
  5.36229225E-01  5.36229225E-01  6.05148582E-01  5.36229225E-01  5.36229225E-01
  6.05148582E-01  5.36229225E-01  5.36229225E-01  6.05148582E-01  5.36229225E-01
  5.36229225E-01  6.05148582E-01  5.36229225E-01  5.36229225E-01  6.05148582E-01
  5.36229225E-01  5.36229225E-01  6.05148582E-01  5.36229225E-01  5.36229225E-01
  6.05148582E-01  5.36229225E-01  5.36229225E-01  6.05148582E-01  5.36229225E-01
  5.36229225E-01  6.05148582E-01  5.36229225E-01  5.36229225E-01  6.05148582E-01
  5.36229225E-01  5.36229225E-01  6.05148582E-01  5.36229225E-01  5.36229225E-01
  6.05148582E-01  5.36229225E-01  5.36229225E-01  6.05148582E-01  5.36229225E-01
  5.36229225E-01  6.05148582E-01  5.36229225E-01  5.36229225E-01  6.05148582E-01
  5.36229225E-01  5.36229225E-01  6.05148582E-01  5.36229225E-01  5.36229225E-01
  6.05148582E-01  5.36229225E-01  5.36229225E-01  6.05148582E-01  5.36229225E-01
  5.36229225E-01  6.05148582E-01  5.36229225E-01  5.36229225E-01  6.05148582E-01
  5.36229225E-01  5.36229225E-01  6.05148582E-01  5.36229225E-01  5.36229225E-01
  6.05148582E-01  5.36229225E-01  5.36229225E-01  6.05148582E-01  5.36229225E-01
  5.36229225E-01  6.05148582E-01  5.36229225E-01  5.36229225E-01  6.05148582E-01
  5.36229225E-01  5.36229225E-01  6.05148582E-01  5.36229225E-01  5.36229225E-01
  6.05148582E-01  5.36229225E-01  5.36229225E-01  6.05148582E-01  5.36229225E-01
  5.36229225E-01  6.05148582E-01  5.36229225E-01  5.36229225E-01  6.05148582E-01
  5.36229225E-01  5.36229225E-01  6.05148582E-01  5.36229225E-01  5.36229225E-01
  6.05148582E-01  5.36229225E-01  5.36229225E-01  6.05148582E-01  5.36229225E-01
  5.36229225E-01  6.05148582E-01  5.36229225E-01  5.36229225E-01  6.05148582E-01
  5.36229225E-01  5.36229225E-01  6.05148582E-01  5.36229225E-01  5.36229225E-01
  6.05148582E-01  5.36229225E-01  5.36229225E-01  6.05148582E-01  5.36229225E-01
  5.36229225E-01  6.05148582E-01  5.36229225E-01  5.36229225E-01  6.05148582E-01
  5.36229225E-01  5.36229225E-01  6.05148582E-01  5.36229225E-01  5.36229225E-01
  6.05148582E-01  5.36229225E-01  5.36229225E-01  6.05148582E-01  5.36229225E-01
  5.36229225E-01  6.05148582E-01  5.36229225E-01  5.36229225E-01  6.05148582E-01
  5.36229225E-01  5.36229225E-01  6.05148582E-01  5.36229225E-01  5.36229225E-01
  6.05148582E-01  5.36229225E-01  5.36229225E-01  6.05148582E-01  5.36229225E-01
  5.36229225E-01  6.05148582E-01  5.36229225E-01  5.36229225E-01  6.05148582E-01
  5.36229225E-01  5.36229225E-01  6.05148582E-01  5.36229225E-01  5.36229225E-01
  6.05148582E-01  5.36229225E-01  5.36229225E-01  6.05148582E-01  5.36229225E-01
  5.36229225E-01  6.05148582E-01  5.36229225E-01  5.36229225E-01  6.05148582E-01
  5.36229225E-01  5.36229225E-01  6.05148582E-01  5.36229225E-01  5.36229225E-01
  6.05148582E-01  5.36229225E-01  5.36229225E-01  6.05148582E-01  5.36229225E-01
  5.36229225E-01  6.05148582E-01  5.36229225E-01  5.36229225E-01  6.05148582E-01
  5.36229225E-01  5.36229225E-01  6.05148582E-01  5.36229225E-01  5.36229225E-01
  6.05148582E-01  5.36229225E-01  5.36229225E-01  6.05148582E-01  5.36229225E-01
  5.36229225E-01  6.05148582E-01  5.36229225E-01  5.36229225E-01  6.05148582E-01
  5.36229225E-01  5.36229225E-01  6.05148582E-01  5.36229225E-01  5.36229225E-01
  6.05148582E-01  5.36229225E-01  5.36229225E-01  6.05148582E-01  5.36229225E-01
  5.36229225E-01  6.05148582E-01  5.36229225E-01  5.36229225E-01  6.05148582E-01
  5.36229225E-01  5.36229225E-01  6.05148582E-01  5.36229225E-01  5.36229225E-01
  6.05148582E-01  5.36229225E-01  5.36229225E-01  6.05148582E-01  5.36229225E-01
  5.36229225E-01  6.05148582E-01  5.36229225E-01  5.36229225E-01  6.05148582E-01
  5.36229225E-01  5.36229225E-01  6.05148582E-01  5.36229225E-01  5.36229225E-01
  6.05148582E-01  5.36229225E-01  5.36229225E-01  6.05148582E-01  5.36229225E-01
  5.36229225E-01  6.05148582E-01  5.36229225E-01  5.36229225E-01
%FLAG POL_GAUSS_POLARIZABILITY_LIST
%COMMENT   unit: Angstrom**3  reduce to 1/10
%COMMENT   dimension = (1536=512*3)
%FORMAT(5E16.8)
  6.62533053E-02  6.62533053E-02  6.62533053E-02  6.62533053E-02  4.59806237E+00
  4.59806237E+00  4.59806237E+00  4.59806237E+00  1.11004396E+00  3.27387015E-01
  3.27387015E-01  1.11004396E+00  3.27387015E-01  3.27387015E-01  1.11004396E+00
  3.27387015E-01  3.27387015E-01  1.11004396E+00  3.27387015E-01  3.27387015E-01
  1.11004396E+00  3.27387015E-01  3.27387015E-01  1.11004396E+00  3.27387015E-01
  3.27387015E-01  1.11004396E+00  3.27387015E-01  3.27387015E-01  1.11004396E+00
  3.27387015E-01  3.27387015E-01  1.11004396E+00  3.27387015E-01  3.27387015E-01
  1.11004396E+00  3.27387015E-01  3.27387015E-01  1.11004396E+00  3.27387015E-01
  3.27387015E-01  1.11004396E+00  3.27387015E-01  3.27387015E-01  1.11004396E+00
  3.27387015E-01  3.27387015E-01  1.11004396E+00  3.27387015E-01  3.27387015E-01
  1.11004396E+00  3.27387015E-01  3.27387015E-01  1.11004396E+00  3.27387015E-01
  3.27387015E-01  1.11004396E+00  3.27387015E-01  3.27387015E-01  1.11004396E+00
  3.27387015E-01  3.27387015E-01  1.11004396E+00  3.27387015E-01  3.27387015E-01
  1.11004396E+00  3.27387015E-01  3.27387015E-01  1.11004396E+00  3.27387015E-01
  3.27387015E-01  1.11004396E+00  3.27387015E-01  3.27387015E-01  1.11004396E+00
  3.27387015E-01  3.27387015E-01  1.11004396E+00  3.27387015E-01  3.27387015E-01
  1.11004396E+00  3.27387015E-01  3.27387015E-01  1.11004396E+00  3.27387015E-01
  3.27387015E-01  1.11004396E+00  3.27387015E-01  3.27387015E-01  1.11004396E+00
  3.27387015E-01  3.27387015E-01  1.11004396E+00  3.27387015E-01  3.27387015E-01
  1.11004396E+00  3.27387015E-01  3.27387015E-01  1.11004396E+00  3.27387015E-01
  3.27387015E-01  1.11004396E+00  3.27387015E-01  3.27387015E-01  1.11004396E+00
  3.27387015E-01  3.27387015E-01  1.11004396E+00  3.27387015E-01  3.27387015E-01
  1.11004396E+00  3.27387015E-01  3.27387015E-01  1.11004396E+00  3.27387015E-01
  3.27387015E-01  1.11004396E+00  3.27387015E-01  3.27387015E-01  1.11004396E+00
  3.27387015E-01  3.27387015E-01  1.11004396E+00  3.27387015E-01  3.27387015E-01
  1.11004396E+00  3.27387015E-01  3.27387015E-01  1.11004396E+00  3.27387015E-01
  3.27387015E-01  1.11004396E+00  3.27387015E-01  3.27387015E-01  1.11004396E+00
  3.27387015E-01  3.27387015E-01  1.11004396E+00  3.27387015E-01  3.27387015E-01
  1.11004396E+00  3.27387015E-01  3.27387015E-01  1.11004396E+00  3.27387015E-01
  3.27387015E-01  1.11004396E+00  3.27387015E-01  3.27387015E-01  1.11004396E+00
  3.27387015E-01  3.27387015E-01  1.11004396E+00  3.27387015E-01  3.27387015E-01
  1.11004396E+00  3.27387015E-01  3.27387015E-01  1.11004396E+00  3.27387015E-01
  3.27387015E-01  1.11004396E+00  3.27387015E-01  3.27387015E-01  1.11004396E+00
  3.27387015E-01  3.27387015E-01  1.11004396E+00  3.27387015E-01  3.27387015E-01
  1.11004396E+00  3.27387015E-01  3.27387015E-01  1.11004396E+00  3.27387015E-01
  3.27387015E-01  1.11004396E+00  3.27387015E-01  3.27387015E-01  1.11004396E+00
  3.27387015E-01  3.27387015E-01  1.11004396E+00  3.27387015E-01  3.27387015E-01
  1.11004396E+00  3.27387015E-01  3.27387015E-01  1.11004396E+00  3.27387015E-01
  3.27387015E-01  1.11004396E+00  3.27387015E-01  3.27387015E-01  1.11004396E+00
  3.27387015E-01  3.27387015E-01  1.11004396E+00  3.27387015E-01  3.27387015E-01
  1.11004396E+00  3.27387015E-01  3.27387015E-01  1.11004396E+00  3.27387015E-01
  3.27387015E-01  1.11004396E+00  3.27387015E-01  3.27387015E-01  1.11004396E+00
  3.27387015E-01  3.27387015E-01  1.11004396E+00  3.27387015E-01  3.27387015E-01
  1.11004396E+00  3.27387015E-01  3.27387015E-01  1.11004396E+00  3.27387015E-01
  3.27387015E-01  1.11004396E+00  3.27387015E-01  3.27387015E-01  1.11004396E+00
  3.27387015E-01  3.27387015E-01  1.11004396E+00  3.27387015E-01  3.27387015E-01
  1.11004396E+00  3.27387015E-01  3.27387015E-01  1.11004396E+00  3.27387015E-01
  3.27387015E-01  1.11004396E+00  3.27387015E-01  3.27387015E-01  1.11004396E+00
  3.27387015E-01  3.27387015E-01  1.11004396E+00  3.27387015E-01  3.27387015E-01
  1.11004396E+00  3.27387015E-01  3.27387015E-01  1.11004396E+00  3.27387015E-01
  3.27387015E-01  1.11004396E+00  3.27387015E-01  3.27387015E-01  1.11004396E+00
  3.27387015E-01  3.27387015E-01  1.11004396E+00  3.27387015E-01  3.27387015E-01
  1.11004396E+00  3.27387015E-01  3.27387015E-01  1.11004396E+00  3.27387015E-01
  3.27387015E-01  1.11004396E+00  3.27387015E-01  3.27387015E-01  1.11004396E+00
  3.27387015E-01  3.27387015E-01  1.11004396E+00  3.27387015E-01  3.27387015E-01
  1.11004396E+00  3.27387015E-01  3.27387015E-01  1.11004396E+00  3.27387015E-01
  3.27387015E-01  1.11004396E+00  3.27387015E-01  3.27387015E-01  1.11004396E+00
  3.27387015E-01  3.27387015E-01  1.11004396E+00  3.27387015E-01  3.27387015E-01
  1.11004396E+00  3.27387015E-01  3.27387015E-01  1.11004396E+00  3.27387015E-01
  3.27387015E-01  1.11004396E+00  3.27387015E-01  3.27387015E-01  1.11004396E+00
  3.27387015E-01  3.27387015E-01  1.11004396E+00  3.27387015E-01  3.27387015E-01
  1.11004396E+00  3.27387015E-01  3.27387015E-01  1.11004396E+00  3.27387015E-01
  3.27387015E-01  1.11004396E+00  3.27387015E-01  3.27387015E-01  1.11004396E+00
  3.27387015E-01  3.27387015E-01  1.11004396E+00  3.27387015E-01  3.27387015E-01
  1.11004396E+00  3.27387015E-01  3.27387015E-01  1.11004396E+00  3.27387015E-01
  3.27387015E-01  1.11004396E+00  3.27387015E-01  3.27387015E-01  1.11004396E+00
  3.27387015E-01  3.27387015E-01  1.11004396E+00  3.27387015E-01  3.27387015E-01
  1.11004396E+00  3.27387015E-01  3.27387015E-01  1.11004396E+00  3.27387015E-01
  3.27387015E-01  1.11004396E+00  3.27387015E-01  3.27387015E-01  1.11004396E+00
  3.27387015E-01  3.27387015E-01  1.11004396E+00  3.27387015E-01  3.27387015E-01
  1.11004396E+00  3.27387015E-01  3.27387015E-01  1.11004396E+00  3.27387015E-01
  3.27387015E-01  1.11004396E+00  3.27387015E-01  3.27387015E-01  1.11004396E+00
  3.27387015E-01  3.27387015E-01  1.11004396E+00  3.27387015E-01  3.27387015E-01
  1.11004396E+00  3.27387015E-01  3.27387015E-01  1.11004396E+00  3.27387015E-01
  3.27387015E-01  1.11004396E+00  3.27387015E-01  3.27387015E-01  1.11004396E+00
  3.27387015E-01  3.27387015E-01  1.11004396E+00  3.27387015E-01  3.27387015E-01
  1.11004396E+00  3.27387015E-01  3.27387015E-01  1.11004396E+00  3.27387015E-01
  3.27387015E-01  1.11004396E+00  3.27387015E-01  3.27387015E-01  1.11004396E+00
  3.27387015E-01  3.27387015E-01  1.11004396E+00  3.27387015E-01  3.27387015E-01
  1.11004396E+00  3.27387015E-01  3.27387015E-01  1.11004396E+00  3.27387015E-01
  3.27387015E-01  1.11004396E+00  3.27387015E-01  3.27387015E-01  1.11004396E+00
  3.27387015E-01  3.27387015E-01  1.11004396E+00  3.27387015E-01  3.27387015E-01
  1.11004396E+00  3.27387015E-01  3.27387015E-01  1.11004396E+00  3.27387015E-01
  3.27387015E-01  1.11004396E+00  3.27387015E-01  3.27387015E-01  1.11004396E+00
  3.27387015E-01  3.27387015E-01  1.11004396E+00  3.27387015E-01  3.27387015E-01
  1.11004396E+00  3.27387015E-01  3.27387015E-01  1.11004396E+00  3.27387015E-01
  3.27387015E-01  1.11004396E+00  3.27387015E-01  3.27387015E-01  1.11004396E+00
  3.27387015E-01  3.27387015E-01  1.11004396E+00  3.27387015E-01  3.27387015E-01
  1.11004396E+00  3.27387015E-01  3.27387015E-01  1.11004396E+00  3.27387015E-01
  3.27387015E-01  1.11004396E+00  3.27387015E-01  3.27387015E-01  1.11004396E+00
  3.27387015E-01  3.27387015E-01  1.11004396E+00  3.27387015E-01  3.27387015E-01
  1.11004396E+00  3.27387015E-01  3.27387015E-01  1.11004396E+00  3.27387015E-01
  3.27387015E-01  1.11004396E+00  3.27387015E-01  3.27387015E-01  1.11004396E+00
  3.27387015E-01  3.27387015E-01  1.11004396E+00  3.27387015E-01  3.27387015E-01
  1.11004396E+00  3.27387015E-01  3.27387015E-01  1.11004396E+00  3.27387015E-01
  3.27387015E-01  1.11004396E+00  3.27387015E-01  3.27387015E-01  1.11004396E+00
  3.27387015E-01  3.27387015E-01  1.11004396E+00  3.27387015E-01  3.27387015E-01
  1.11004396E+00  3.27387015E-01  3.27387015E-01  1.11004396E+00  3.27387015E-01
  3.27387015E-01  1.11004396E+00  3.27387015E-01  3.27387015E-01  1.11004396E+00
  3.27387015E-01  3.27387015E-01  1.11004396E+00  3.27387015E-01  3.27387015E-01
  1.11004396E+00  3.27387015E-01  3.27387015E-01  1.11004396E+00  3.27387015E-01
  3.27387015E-01  1.11004396E+00  3.27387015E-01  3.27387015E-01  1.11004396E+00
  3.27387015E-01  3.27387015E-01  1.11004396E+00  3.27387015E-01  3.27387015E-01
  1.11004396E+00  3.27387015E-01  3.27387015E-01  1.11004396E+00  3.27387015E-01
  3.27387015E-01  1.11004396E+00  3.27387015E-01  3.27387015E-01  1.11004396E+00
  3.27387015E-01  3.27387015E-01  1.11004396E+00  3.27387015E-01  3.27387015E-01
  1.11004396E+00  3.27387015E-01  3.27387015E-01  1.11004396E+00  3.27387015E-01
  3.27387015E-01  1.11004396E+00  3.27387015E-01  3.27387015E-01  1.11004396E+00
  3.27387015E-01  3.27387015E-01  1.11004396E+00  3.27387015E-01  3.27387015E-01
  1.11004396E+00  3.27387015E-01  3.27387015E-01  1.11004396E+00  3.27387015E-01
  3.27387015E-01  1.11004396E+00  3.27387015E-01  3.27387015E-01  1.11004396E+00
  3.27387015E-01  3.27387015E-01  1.11004396E+00  3.27387015E-01  3.27387015E-01
  1.11004396E+00  3.27387015E-01  3.27387015E-01  1.11004396E+00  3.27387015E-01
  3.27387015E-01  1.11004396E+00  3.27387015E-01  3.27387015E-01  1.11004396E+00
  3.27387015E-01  3.27387015E-01  1.11004396E+00  3.27387015E-01  3.27387015E-01
  1.11004396E+00  3.27387015E-01  3.27387015E-01  1.11004396E+00  3.27387015E-01
  3.27387015E-01  1.11004396E+00  3.27387015E-01  3.27387015E-01  1.11004396E+00
  3.27387015E-01  3.27387015E-01  1.11004396E+00  3.27387015E-01  3.27387015E-01
  1.11004396E+00  3.27387015E-01  3.27387015E-01  1.11004396E+00  3.27387015E-01
  3.27387015E-01  1.11004396E+00  3.27387015E-01  3.27387015E-01  1.11004396E+00
  3.27387015E-01  3.27387015E-01  1.11004396E+00  3.27387015E-01  3.27387015E-01
  1.11004396E+00  3.27387015E-01  3.27387015E-01  1.11004396E+00  3.27387015E-01
  3.27387015E-01  1.11004396E+00  3.27387015E-01  3.27387015E-01  1.11004396E+00
  3.27387015E-01  3.27387015E-01  1.11004396E+00  3.27387015E-01  3.27387015E-01
  1.11004396E+00  3.27387015E-01  3.27387015E-01  1.11004396E+00  3.27387015E-01
  3.27387015E-01  1.11004396E+00  3.27387015E-01  3.27387015E-01  1.11004396E+00
  3.27387015E-01  3.27387015E-01  1.11004396E+00  3.27387015E-01  3.27387015E-01
  1.11004396E+00  3.27387015E-01  3.27387015E-01  1.11004396E+00  3.27387015E-01
  3.27387015E-01  1.11004396E+00  3.27387015E-01  3.27387015E-01  1.11004396E+00
  3.27387015E-01  3.27387015E-01  1.11004396E+00  3.27387015E-01  3.27387015E-01
  1.11004396E+00  3.27387015E-01  3.27387015E-01  1.11004396E+00  3.27387015E-01
  3.27387015E-01  1.11004396E+00  3.27387015E-01  3.27387015E-01  1.11004396E+00
  3.27387015E-01  3.27387015E-01  1.11004396E+00  3.27387015E-01  3.27387015E-01
  1.11004396E+00  3.27387015E-01  3.27387015E-01  1.11004396E+00  3.27387015E-01
  3.27387015E-01  1.11004396E+00  3.27387015E-01  3.27387015E-01  1.11004396E+00
  3.27387015E-01  3.27387015E-01  1.11004396E+00  3.27387015E-01  3.27387015E-01
  1.11004396E+00  3.27387015E-01  3.27387015E-01  1.11004396E+00  3.27387015E-01
  3.27387015E-01  1.11004396E+00  3.27387015E-01  3.27387015E-01  1.11004396E+00
  3.27387015E-01  3.27387015E-01  1.11004396E+00  3.27387015E-01  3.27387015E-01
  1.11004396E+00  3.27387015E-01  3.27387015E-01  1.11004396E+00  3.27387015E-01
  3.27387015E-01  1.11004396E+00  3.27387015E-01  3.27387015E-01  1.11004396E+00
  3.27387015E-01  3.27387015E-01  1.11004396E+00  3.27387015E-01  3.27387015E-01
  1.11004396E+00  3.27387015E-01  3.27387015E-01  1.11004396E+00  3.27387015E-01
  3.27387015E-01  1.11004396E+00  3.27387015E-01  3.27387015E-01  1.11004396E+00
  3.27387015E-01  3.27387015E-01  1.11004396E+00  3.27387015E-01  3.27387015E-01
  1.11004396E+00  3.27387015E-01  3.27387015E-01  1.11004396E+00  3.27387015E-01
  3.27387015E-01  1.11004396E+00  3.27387015E-01  3.27387015E-01  1.11004396E+00
  3.27387015E-01  3.27387015E-01  1.11004396E+00  3.27387015E-01  3.27387015E-01
  1.11004396E+00  3.27387015E-01  3.27387015E-01  1.11004396E+00  3.27387015E-01
  3.27387015E-01  1.11004396E+00  3.27387015E-01  3.27387015E-01  1.11004396E+00
  3.27387015E-01  3.27387015E-01  1.11004396E+00  3.27387015E-01  3.27387015E-01
  1.11004396E+00  3.27387015E-01  3.27387015E-01  1.11004396E+00  3.27387015E-01
  3.27387015E-01  1.11004396E+00  3.27387015E-01  3.27387015E-01  1.11004396E+00
  3.27387015E-01  3.27387015E-01  1.11004396E+00  3.27387015E-01  3.27387015E-01
  1.11004396E+00  3.27387015E-01  3.27387015E-01  1.11004396E+00  3.27387015E-01
  3.27387015E-01  1.11004396E+00  3.27387015E-01  3.27387015E-01  1.11004396E+00
  3.27387015E-01  3.27387015E-01  1.11004396E+00  3.27387015E-01  3.27387015E-01
  1.11004396E+00  3.27387015E-01  3.27387015E-01  1.11004396E+00  3.27387015E-01
  3.27387015E-01  1.11004396E+00  3.27387015E-01  3.27387015E-01  1.11004396E+00
  3.27387015E-01  3.27387015E-01  1.11004396E+00  3.27387015E-01  3.27387015E-01
  1.11004396E+00  3.27387015E-01  3.27387015E-01  1.11004396E+00  3.27387015E-01
  3.27387015E-01  1.11004396E+00  3.27387015E-01  3.27387015E-01  1.11004396E+00
  3.27387015E-01  3.27387015E-01  1.11004396E+00  3.27387015E-01  3.27387015E-01
  1.11004396E+00  3.27387015E-01  3.27387015E-01  1.11004396E+00  3.27387015E-01
  3.27387015E-01  1.11004396E+00  3.27387015E-01  3.27387015E-01  1.11004396E+00
  3.27387015E-01  3.27387015E-01  1.11004396E+00  3.27387015E-01  3.27387015E-01
  1.11004396E+00  3.27387015E-01  3.27387015E-01  1.11004396E+00  3.27387015E-01
  3.27387015E-01  1.11004396E+00  3.27387015E-01  3.27387015E-01  1.11004396E+00
  3.27387015E-01  3.27387015E-01  1.11004396E+00  3.27387015E-01  3.27387015E-01
  1.11004396E+00  3.27387015E-01  3.27387015E-01  1.11004396E+00  3.27387015E-01
  3.27387015E-01  1.11004396E+00  3.27387015E-01  3.27387015E-01  1.11004396E+00
  3.27387015E-01  3.27387015E-01  1.11004396E+00  3.27387015E-01  3.27387015E-01
  1.11004396E+00  3.27387015E-01  3.27387015E-01  1.11004396E+00  3.27387015E-01
  3.27387015E-01  1.11004396E+00  3.27387015E-01  3.27387015E-01  1.11004396E+00
  3.27387015E-01  3.27387015E-01  1.11004396E+00  3.27387015E-01  3.27387015E-01
  1.11004396E+00  3.27387015E-01  3.27387015E-01  1.11004396E+00  3.27387015E-01
  3.27387015E-01  1.11004396E+00  3.27387015E-01  3.27387015E-01  1.11004396E+00
  3.27387015E-01  3.27387015E-01  1.11004396E+00  3.27387015E-01  3.27387015E-01
  1.11004396E+00  3.27387015E-01  3.27387015E-01  1.11004396E+00  3.27387015E-01
  3.27387015E-01  1.11004396E+00  3.27387015E-01  3.27387015E-01  1.11004396E+00
  3.27387015E-01  3.27387015E-01  1.11004396E+00  3.27387015E-01  3.27387015E-01
  1.11004396E+00  3.27387015E-01  3.27387015E-01  1.11004396E+00  3.27387015E-01
  3.27387015E-01  1.11004396E+00  3.27387015E-01  3.27387015E-01  1.11004396E+00
  3.27387015E-01  3.27387015E-01  1.11004396E+00  3.27387015E-01  3.27387015E-01
  1.11004396E+00  3.27387015E-01  3.27387015E-01  1.11004396E+00  3.27387015E-01
  3.27387015E-01  1.11004396E+00  3.27387015E-01  3.27387015E-01  1.11004396E+00
  3.27387015E-01  3.27387015E-01  1.11004396E+00  3.27387015E-01  3.27387015E-01
  1.11004396E+00  3.27387015E-01  3.27387015E-01  1.11004396E+00  3.27387015E-01
  3.27387015E-01  1.11004396E+00  3.27387015E-01  3.27387015E-01  1.11004396E+00
  3.27387015E-01  3.27387015E-01  1.11004396E+00  3.27387015E-01  3.27387015E-01
  1.11004396E+00  3.27387015E-01  3.27387015E-01  1.11004396E+00  3.27387015E-01
  3.27387015E-01  1.11004396E+00  3.27387015E-01  3.27387015E-01  1.11004396E+00
  3.27387015E-01  3.27387015E-01  1.11004396E+00  3.27387015E-01  3.27387015E-01
  1.11004396E+00  3.27387015E-01  3.27387015E-01  1.11004396E+00  3.27387015E-01
  3.27387015E-01  1.11004396E+00  3.27387015E-01  3.27387015E-01  1.11004396E+00
  3.27387015E-01  3.27387015E-01  1.11004396E+00  3.27387015E-01  3.27387015E-01
  1.11004396E+00  3.27387015E-01  3.27387015E-01  1.11004396E+00  3.27387015E-01
  3.27387015E-01  1.11004396E+00  3.27387015E-01  3.27387015E-01  1.11004396E+00
  3.27387015E-01  3.27387015E-01  1.11004396E+00  3.27387015E-01  3.27387015E-01
  1.11004396E+00  3.27387015E-01  3.27387015E-01  1.11004396E+00  3.27387015E-01
  3.27387015E-01  1.11004396E+00  3.27387015E-01  3.27387015E-01  1.11004396E+00
  3.27387015E-01  3.27387015E-01  1.11004396E+00  3.27387015E-01  3.27387015E-01
  1.11004396E+00  3.27387015E-01  3.27387015E-01  1.11004396E+00  3.27387015E-01
  3.27387015E-01  1.11004396E+00  3.27387015E-01  3.27387015E-01  1.11004396E+00
  3.27387015E-01  3.27387015E-01  1.11004396E+00  3.27387015E-01  3.27387015E-01
  1.11004396E+00  3.27387015E-01  3.27387015E-01  1.11004396E+00  3.27387015E-01
  3.27387015E-01  1.11004396E+00  3.27387015E-01  3.27387015E-01  1.11004396E+00
  3.27387015E-01  3.27387015E-01  1.11004396E+00  3.27387015E-01  3.27387015E-01
  1.11004396E+00  3.27387015E-01  3.27387015E-01  1.11004396E+00  3.27387015E-01
  3.27387015E-01  1.11004396E+00  3.27387015E-01  3.27387015E-01  1.11004396E+00
  3.27387015E-01  3.27387015E-01  1.11004396E+00  3.27387015E-01  3.27387015E-01
  1.11004396E+00  3.27387015E-01  3.27387015E-01  1.11004396E+00  3.27387015E-01
  3.27387015E-01  1.11004396E+00  3.27387015E-01  3.27387015E-01  1.11004396E+00
  3.27387015E-01  3.27387015E-01  1.11004396E+00  3.27387015E-01  3.27387015E-01
  1.11004396E+00  3.27387015E-01  3.27387015E-01  1.11004396E+00  3.27387015E-01
  3.27387015E-01  1.11004396E+00  3.27387015E-01  3.27387015E-01  1.11004396E+00
  3.27387015E-01  3.27387015E-01  1.11004396E+00  3.27387015E-01  3.27387015E-01
  1.11004396E+00  3.27387015E-01  3.27387015E-01  1.11004396E+00  3.27387015E-01
  3.27387015E-01  1.11004396E+00  3.27387015E-01  3.27387015E-01  1.11004396E+00
  3.27387015E-01  3.27387015E-01  1.11004396E+00  3.27387015E-01  3.27387015E-01
  1.11004396E+00  3.27387015E-01  3.27387015E-01  1.11004396E+00  3.27387015E-01
  3.27387015E-01  1.11004396E+00  3.27387015E-01  3.27387015E-01  1.11004396E+00
  3.27387015E-01  3.27387015E-01  1.11004396E+00  3.27387015E-01  3.27387015E-01
  1.11004396E+00  3.27387015E-01  3.27387015E-01  1.11004396E+00  3.27387015E-01
  3.27387015E-01  1.11004396E+00  3.27387015E-01  3.27387015E-01  1.11004396E+00
  3.27387015E-01  3.27387015E-01  1.11004396E+00  3.27387015E-01  3.27387015E-01
  1.11004396E+00  3.27387015E-01  3.27387015E-01  1.11004396E+00  3.27387015E-01
  3.27387015E-01  1.11004396E+00  3.27387015E-01  3.27387015E-01  1.11004396E+00
  3.27387015E-01  3.27387015E-01  1.11004396E+00  3.27387015E-01  3.27387015E-01
  1.11004396E+00  3.27387015E-01  3.27387015E-01  1.11004396E+00  3.27387015E-01
  3.27387015E-01  1.11004396E+00  3.27387015E-01  3.27387015E-01  1.11004396E+00
  3.27387015E-01  3.27387015E-01  1.11004396E+00  3.27387015E-01  3.27387015E-01
  1.11004396E+00  3.27387015E-01  3.27387015E-01  1.11004396E+00  3.27387015E-01
  3.27387015E-01  1.11004396E+00  3.27387015E-01  3.27387015E-01  1.11004396E+00
  3.27387015E-01  3.27387015E-01  1.11004396E+00  3.27387015E-01  3.27387015E-01
  1.11004396E+00  3.27387015E-01  3.27387015E-01  1.11004396E+00  3.27387015E-01
  3.27387015E-01  1.11004396E+00  3.27387015E-01  3.27387015E-01  1.11004396E+00
  3.27387015E-01  3.27387015E-01  1.11004396E+00  3.27387015E-01  3.27387015E-01
  1.11004396E+00  3.27387015E-01  3.27387015E-01  1.11004396E+00  3.27387015E-01
  3.27387015E-01  1.11004396E+00  3.27387015E-01  3.27387015E-01  1.11004396E+00
  3.27387015E-01  3.27387015E-01  1.11004396E+00  3.27387015E-01  3.27387015E-01
  1.11004396E+00  3.27387015E-01  3.27387015E-01  1.11004396E+00  3.27387015E-01
  3.27387015E-01  1.11004396E+00  3.27387015E-01  3.27387015E-01  1.11004396E+00
  3.27387015E-01  3.27387015E-01  1.11004396E+00  3.27387015E-01  3.27387015E-01
  1.11004396E+00  3.27387015E-01  3.27387015E-01  1.11004396E+00  3.27387015E-01
  3.27387015E-01  1.11004396E+00  3.27387015E-01  3.27387015E-01  1.11004396E+00
  3.27387015E-01  3.27387015E-01  1.11004396E+00  3.27387015E-01  3.27387015E-01
  1.11004396E+00  3.27387015E-01  3.27387015E-01  1.11004396E+00  3.27387015E-01
  3.27387015E-01  1.11004396E+00  3.27387015E-01  3.27387015E-01  1.11004396E+00
  3.27387015E-01  3.27387015E-01  1.11004396E+00  3.27387015E-01  3.27387015E-01
  1.11004396E+00  3.27387015E-01  3.27387015E-01  1.11004396E+00  3.27387015E-01
  3.27387015E-01  1.11004396E+00  3.27387015E-01  3.27387015E-01  1.11004396E+00
  3.27387015E-01  3.27387015E-01  1.11004396E+00  3.27387015E-01  3.27387015E-01
  1.11004396E+00  3.27387015E-01  3.27387015E-01  1.11004396E+00  3.27387015E-01
  3.27387015E-01  1.11004396E+00  3.27387015E-01  3.27387015E-01  1.11004396E+00
  3.27387015E-01  3.27387015E-01  1.11004396E+00  3.27387015E-01  3.27387015E-01
  1.11004396E+00  3.27387015E-01  3.27387015E-01  1.11004396E+00  3.27387015E-01
  3.27387015E-01  1.11004396E+00  3.27387015E-01  3.27387015E-01  1.11004396E+00
  3.27387015E-01  3.27387015E-01  1.11004396E+00  3.27387015E-01  3.27387015E-01
  1.11004396E+00  3.27387015E-01  3.27387015E-01  1.11004396E+00  3.27387015E-01
  3.27387015E-01  1.11004396E+00  3.27387015E-01  3.27387015E-01  1.11004396E+00
  3.27387015E-01  3.27387015E-01  1.11004396E+00  3.27387015E-01  3.27387015E-01
  1.11004396E+00  3.27387015E-01  3.27387015E-01  1.11004396E+00  3.27387015E-01
  3.27387015E-01  1.11004396E+00  3.27387015E-01  3.27387015E-01  1.11004396E+00
  3.27387015E-01  3.27387015E-01  1.11004396E+00  3.27387015E-01  3.27387015E-01
  1.11004396E+00  3.27387015E-01  3.27387015E-01  1.11004396E+00  3.27387015E-01
  3.27387015E-01  1.11004396E+00  3.27387015E-01  3.27387015E-01  1.11004396E+00
  3.27387015E-01  3.27387015E-01  1.11004396E+00  3.27387015E-01  3.27387015E-01
  1.11004396E+00  3.27387015E-01  3.27387015E-01  1.11004396E+00  3.27387015E-01
  3.27387015E-01  1.11004396E+00  3.27387015E-01  3.27387015E-01  1.11004396E+00
  3.27387015E-01  3.27387015E-01  1.11004396E+00  3.27387015E-01  3.27387015E-01
  1.11004396E+00  3.27387015E-01  3.27387015E-01  1.11004396E+00  3.27387015E-01
  3.27387015E-01  1.11004396E+00  3.27387015E-01  3.27387015E-01  1.11004396E+00
  3.27387015E-01  3.27387015E-01  1.11004396E+00  3.27387015E-01  3.27387015E-01
  1.11004396E+00  3.27387015E-01  3.27387015E-01  1.11004396E+00  3.27387015E-01
  3.27387015E-01  1.11004396E+00  3.27387015E-01  3.27387015E-01  1.11004396E+00
  3.27387015E-01  3.27387015E-01  1.11004396E+00  3.27387015E-01  3.27387015E-01
  1.11004396E+00  3.27387015E-01  3.27387015E-01  1.11004396E+00  3.27387015E-01
  3.27387015E-01  1.11004396E+00  3.27387015E-01  3.27387015E-01  1.11004396E+00
  3.27387015E-01  3.27387015E-01  1.11004396E+00  3.27387015E-01  3.27387015E-01
  1.11004396E+00  3.27387015E-01  3.27387015E-01  1.11004396E+00  3.27387015E-01
  3.27387015E-01  1.11004396E+00  3.27387015E-01  3.27387015E-01  1.11004396E+00
  3.27387015E-01  3.27387015E-01  1.11004396E+00  3.27387015E-01  3.27387015E-01
  1.11004396E+00  3.27387015E-01  3.27387015E-01  1.11004396E+00  3.27387015E-01
  3.27387015E-01  1.11004396E+00  3.27387015E-01  3.27387015E-01  1.11004396E+00
  3.27387015E-01  3.27387015E-01  1.11004396E+00  3.27387015E-01  3.27387015E-01
  1.11004396E+00  3.27387015E-01  3.27387015E-01  1.11004396E+00  3.27387015E-01
  3.27387015E-01  1.11004396E+00  3.27387015E-01  3.27387015E-01  1.11004396E+00
  3.27387015E-01  3.27387015E-01  1.11004396E+00  3.27387015E-01  3.27387015E-01
  1.11004396E+00  3.27387015E-01  3.27387015E-01  1.11004396E+00  3.27387015E-01
  3.27387015E-01  1.11004396E+00  3.27387015E-01  3.27387015E-01  1.11004396E+00
  3.27387015E-01  3.27387015E-01  1.11004396E+00  3.27387015E-01  3.27387015E-01
  1.11004396E+00  3.27387015E-01  3.27387015E-01  1.11004396E+00  3.27387015E-01
  3.27387015E-01  1.11004396E+00  3.27387015E-01  3.27387015E-01  1.11004396E+00
  3.27387015E-01  3.27387015E-01  1.11004396E+00  3.27387015E-01  3.27387015E-01
  1.11004396E+00  3.27387015E-01  3.27387015E-01  1.11004396E+00  3.27387015E-01
  3.27387015E-01  1.11004396E+00  3.27387015E-01  3.27387015E-01  1.11004396E+00
  3.27387015E-01  3.27387015E-01  1.11004396E+00  3.27387015E-01  3.27387015E-01
  1.11004396E+00  3.27387015E-01  3.27387015E-01  1.11004396E+00  3.27387015E-01
  3.27387015E-01  1.11004396E+00  3.27387015E-01  3.27387015E-01  1.11004396E+00
  3.27387015E-01  3.27387015E-01  1.11004396E+00  3.27387015E-01  3.27387015E-01
  1.11004396E+00  3.27387015E-01  3.27387015E-01  1.11004396E+00  3.27387015E-01
  3.27387015E-01  1.11004396E+00  3.27387015E-01  3.27387015E-01  1.11004396E+00
  3.27387015E-01  3.27387015E-01  1.11004396E+00  3.27387015E-01  3.27387015E-01
  1.11004396E+00  3.27387015E-01  3.27387015E-01  1.11004396E+00  3.27387015E-01
  3.27387015E-01  1.11004396E+00  3.27387015E-01  3.27387015E-01  1.11004396E+00
  3.27387015E-01  3.27387015E-01  1.11004396E+00  3.27387015E-01  3.27387015E-01
  1.11004396E+00  3.27387015E-01  3.27387015E-01  1.11004396E+00  3.27387015E-01
  3.27387015E-01  1.11004396E+00  3.27387015E-01  3.27387015E-01  1.11004396E+00
  3.27387015E-01  3.27387015E-01  1.11004396E+00  3.27387015E-01  3.27387015E-01
  1.11004396E+00  3.27387015E-01  3.27387015E-01  1.11004396E+00  3.27387015E-01
  3.27387015E-01  1.11004396E+00  3.27387015E-01  3.27387015E-01  1.11004396E+00
  3.27387015E-01  3.27387015E-01  1.11004396E+00  3.27387015E-01  3.27387015E-01
  1.11004396E+00  3.27387015E-01  3.27387015E-01  1.11004396E+00  3.27387015E-01
  3.27387015E-01  1.11004396E+00  3.27387015E-01  3.27387015E-01  1.11004396E+00
  3.27387015E-01  3.27387015E-01  1.11004396E+00  3.27387015E-01  3.27387015E-01
  1.11004396E+00  3.27387015E-01  3.27387015E-01  1.11004396E+00  3.27387015E-01
  3.27387015E-01  1.11004396E+00  3.27387015E-01  3.27387015E-01  1.11004396E+00
  3.27387015E-01  3.27387015E-01  1.11004396E+00  3.27387015E-01  3.27387015E-01
  1.11004396E+00  3.27387015E-01  3.27387015E-01  1.11004396E+00  3.27387015E-01
  3.27387015E-01  1.11004396E+00  3.27387015E-01  3.27387015E-01  1.11004396E+00
  3.27387015E-01  3.27387015E-01  1.11004396E+00  3.27387015E-01  3.27387015E-01
  1.11004396E+00  3.27387015E-01  3.27387015E-01  1.11004396E+00  3.27387015E-01
  3.27387015E-01  1.11004396E+00  3.27387015E-01  3.27387015E-01  1.11004396E+00
  3.27387015E-01  3.27387015E-01  1.11004396E+00  3.27387015E-01  3.27387015E-01
  1.11004396E+00  3.27387015E-01  3.27387015E-01  1.11004396E+00  3.27387015E-01
  3.27387015E-01  1.11004396E+00  3.27387015E-01  3.27387015E-01  1.11004396E+00
  3.27387015E-01  3.27387015E-01  1.11004396E+00  3.27387015E-01  3.27387015E-01
  1.11004396E+00  3.27387015E-01  3.27387015E-01  1.11004396E+00  3.27387015E-01
  3.27387015E-01  1.11004396E+00  3.27387015E-01  3.27387015E-01  1.11004396E+00
  3.27387015E-01  3.27387015E-01  1.11004396E+00  3.27387015E-01  3.27387015E-01
  1.11004396E+00  3.27387015E-01  3.27387015E-01  1.11004396E+00  3.27387015E-01
  3.27387015E-01  1.11004396E+00  3.27387015E-01  3.27387015E-01  1.11004396E+00
  3.27387015E-01  3.27387015E-01  1.11004396E+00  3.27387015E-01  3.27387015E-01
  1.11004396E+00  3.27387015E-01  3.27387015E-01  1.11004396E+00  3.27387015E-01
  3.27387015E-01  1.11004396E+00  3.27387015E-01  3.27387015E-01  1.11004396E+00
  3.27387015E-01  3.27387015E-01  1.11004396E+00  3.27387015E-01  3.27387015E-01
  1.11004396E+00  3.27387015E-01  3.27387015E-01  1.11004396E+00  3.27387015E-01
  3.27387015E-01  1.11004396E+00  3.27387015E-01  3.27387015E-01  1.11004396E+00
  3.27387015E-01  3.27387015E-01  1.11004396E+00  3.27387015E-01  3.27387015E-01
  1.11004396E+00  3.27387015E-01  3.27387015E-01  1.11004396E+00  3.27387015E-01
  3.27387015E-01  1.11004396E+00  3.27387015E-01  3.27387015E-01  1.11004396E+00
  3.27387015E-01  3.27387015E-01  1.11004396E+00  3.27387015E-01  3.27387015E-01
  1.11004396E+00  3.27387015E-01  3.27387015E-01  1.11004396E+00  3.27387015E-01
  3.27387015E-01  1.11004396E+00  3.27387015E-01  3.27387015E-01  1.11004396E+00
  3.27387015E-01  3.27387015E-01  1.11004396E+00  3.27387015E-01  3.27387015E-01
  1.11004396E+00  3.27387015E-01  3.27387015E-01  1.11004396E+00  3.27387015E-01
  3.27387015E-01  1.11004396E+00  3.27387015E-01  3.27387015E-01  1.11004396E+00
  3.27387015E-01  3.27387015E-01  1.11004396E+00  3.27387015E-01  3.27387015E-01
  1.11004396E+00  3.27387015E-01  3.27387015E-01  1.11004396E+00  3.27387015E-01
  3.27387015E-01  1.11004396E+00  3.27387015E-01  3.27387015E-01  1.11004396E+00
  3.27387015E-01  3.27387015E-01  1.11004396E+00  3.27387015E-01  3.27387015E-01
  1.11004396E+00  3.27387015E-01  3.27387015E-01  1.11004396E+00  3.27387015E-01
  3.27387015E-01  1.11004396E+00  3.27387015E-01  3.27387015E-01  1.11004396E+00
  3.27387015E-01  3.27387015E-01  1.11004396E+00  3.27387015E-01  3.27387015E-01
  1.11004396E+00  3.27387015E-01  3.27387015E-01  1.11004396E+00  3.27387015E-01
  3.27387015E-01  1.11004396E+00  3.27387015E-01  3.27387015E-01  1.11004396E+00
  3.27387015E-01  3.27387015E-01  1.11004396E+00  3.27387015E-01  3.27387015E-01
  1.11004396E+00  3.27387015E-01  3.27387015E-01  1.11004396E+00  3.27387015E-01
  3.27387015E-01  1.11004396E+00  3.27387015E-01  3.27387015E-01  1.11004396E+00
  3.27387015E-01  3.27387015E-01  1.11004396E+00  3.27387015E-01  3.27387015E-01
  1.11004396E+00  3.27387015E-01  3.27387015E-01  1.11004396E+00  3.27387015E-01
  3.27387015E-01  1.11004396E+00  3.27387015E-01  3.27387015E-01  1.11004396E+00
  3.27387015E-01  3.27387015E-01  1.11004396E+00  3.27387015E-01  3.27387015E-01
  1.11004396E+00  3.27387015E-01  3.27387015E-01  1.11004396E+00  3.27387015E-01
  3.27387015E-01  1.11004396E+00  3.27387015E-01  3.27387015E-01  1.11004396E+00
  3.27387015E-01  3.27387015E-01  1.11004396E+00  3.27387015E-01  3.27387015E-01
  1.11004396E+00  3.27387015E-01  3.27387015E-01  1.11004396E+00  3.27387015E-01
  3.27387015E-01  1.11004396E+00  3.27387015E-01  3.27387015E-01
